
                                 *****************
                                 * O   R   C   A *
                                 *****************

           --- An Ab Initio, DFT and Semiempirical electronic structure package ---

                  #######################################################
                  #                        -***-                        #
                  #  Department of molecular theory and spectroscopy    #
                  #              Directorship: Frank Neese              #
                  # Max Planck Institute for Chemical Energy Conversion #
                  #                  D-45470 Muelheim/Ruhr              #
                  #                       Germany                       #
                  #                                                     #
                  #                  All rights reserved                #
                  #                        -***-                        #
                  #######################################################


                         Program Version 3.0.3 - RELEASE   -


 With contributions from (in alphabetic order):
   Ute Becker             : Parallelization
   Dmytro Bykov           : SCF Hessian
   Dmitry Ganyushin       : Spin-Orbit,Spin-Spin,Magnetic field MRCI
   Andreas Hansen         : Spin unrestricted coupled pair/coupled cluster methods
   Dimitrios Liakos       : Extrapolation schemes; parallel MDCI
   Robert Izsak           : Overlap fitted RIJCOSX, COSX-SCS-MP3
   Christian Kollmar      : KDIIS, OOCD, Brueckner-CCSD(T), CCSD density
   Simone Kossmann        : Meta GGA functionals, TD-DFT gradient, OOMP2, MP2 Hessian
   Taras Petrenko         : DFT Hessian,TD-DFT gradient, ASA and ECA modules, normal mode analysis, Resonance Raman, ABS, FL, XAS/XES, NRVS
   Christoph Reimann      : Effective Core Potentials
   Michael Roemelt        : Restricted open shell CIS
   Christoph Riplinger    : Improved optimizer, TS searches, QM/MM, DLPNO-CCSD
   Barbara Sandhoefer     : DKH picture change effects
   Igor Schapiro          : Molecular dynamics
   Kantharuban Sivalingam : CASSCF convergence, NEVPT2
   Boris Wezisla          : Elementary symmetry handling
   Frank Wennmohs         : Technical directorship


 We gratefully acknowledge several colleagues who have allowed us to
 interface, adapt or use parts of their codes:
   Stefan Grimme, W. Hujo, H. Kruse, T. Risthaus : VdW corrections, initial TS optimization,
                                                   DFT functionals, gCP
   Ed Valeev                                     : LibInt (2-el integral package), F12 methods
   Garnet Chan, S. Sharma, R. Olivares           : DMRG
   Ulf Ekstrom                                   : XCFun DFT Library
   Mihaly Kallay                                 : mrcc  (arbitrary order and MRCC methods)
   Andreas Klamt, Michael Diedenhofen            : otool_cosmo (COSMO solvation model)
   Frank Weinhold                                : gennbo (NPA and NBO analysis)
   Christopher J. Cramer and Donald G. Truhlar   : smd solvation model


 Your calculation uses the libint2 library for the computation of 2-el integrals
 For citations please refer to: http://libint.valeyev.net

 This ORCA versions uses:
   CBLAS   interface :  Fast vector & matrix operations
   LAPACKE interface :  Fast linear algebra routines
   SCALAPACK package :  Parallel linear algebra routines


Your calculation utilizes the basis: Ahlrichs-TZV
Cite in your paper:
H - Kr: A. Schaefer, H. Horn and R. Ahlrichs, J. Chem. Phys. 97, 2571 (1992).

The def2-TZV basis will be loaded
Cite in your paper:
 	F. Weigend, R. Ahlrichs, Phys. Chem. Chem. Phys. 2005, 7, 3297.

================================================================================
                                        WARNINGS
                       Please study these warnings very carefully!
================================================================================
Now building the actual basis set

WARNING: your system is open-shell and RHF/RKS was chosen
  ===> : WILL SWITCH to UHF/UKS



INFO   : the flag for use of LIBINT has been found!

================================================================================
                                       INPUT FILE
================================================================================
NAME = c-pep0.inp
|  1> ! pbe0 def2-TZVP TIGHTSCF
|  2> % maxcore 2000
|  3> *xyz 0 3
|  4>  C       0.0000000     0.0000000     0.000000000
|  5> *
|  6> 
|  7>                          ****END OF INPUT****
================================================================================

                       ****************************
                       * Single Point Calculation *
                       ****************************

---------------------------------
CARTESIAN COORDINATES (ANGSTROEM)
---------------------------------
  C      0.000000    0.000000    0.000000

----------------------------
CARTESIAN COORDINATES (A.U.)
----------------------------
  NO LB      ZA    FRAG    MASS        X           Y           Z
   0 C     6.0000    0    12.011          0.000000000000000          0.000000000000000          0.000000000000000

--------------------------------
INTERNAL COORDINATES (ANGSTROEM)
--------------------------------
 C      0   0   0   0.000000     0.000     0.000

---------------------------
INTERNAL COORDINATES (A.U.)
---------------------------
 C      0   0   0   0.000000     0.000     0.000

---------------------
BASIS SET INFORMATION
---------------------
There are 1 groups of distinct atoms

 Group   1 Type C   : 11s6p2d1f contracted to 5s3p2d1f pattern {62111/411/11/1}

Atom   0C    basis set group =>   1
------------------------------------------------------------------------------
                           ORCA GTO INTEGRAL CALCULATION
------------------------------------------------------------------------------

                         BASIS SET STATISTICS AND STARTUP INFO

 # of primitive gaussian shells          ...   20
 # of primitive gaussian functions       ...   46
 # of contracted shell                   ...   11
 # of contracted basis functions         ...   31
 Highest angular momentum                ...    3
 Maximum contraction depth               ...    6
 Integral package used                   ... LIBINT
 Integral threshhold            Thresh   ...  2.500e-11
 Primitive cut-off              TCut     ...  2.500e-12


                              INTEGRAL EVALUATION

 One electron integrals                  ... done
 Pre-screening matrix                    ... done
 Shell pair data                         ... done (   0.000 sec)

-------------------------------------------------------------------------------
                                 ORCA SCF
-------------------------------------------------------------------------------

------------
SCF SETTINGS
------------
Hamiltonian:
 Density Functional     Method          .... DFT(GTOs)
 Exchange Functional    Exchange        .... PBE
   PBE kappa parameter  XKappa          ....  0.804000
 Correlation Functional Correlation     .... PBE
 LDA part of GGA corr.  LDAOpt          .... PW91-LDA
 Gradients option       PostSCFGGA      .... off
 Hybrid DFT is turned on
   Fraction HF Exchange ScalHFX         ....  0.250000
   Scaling of DF-GGA-X  ScalDFX         ....  0.750000
   Scaling of DF-GGA-C  ScalDFC         ....  1.000000
   Scaling of DF-LDA-C  ScalLDAC        ....  1.000000
   Perturbative correction              ....  0.000000
   NL short-range parameter             ....  6.900000


General Settings:
 Integral files         IntName         .... c-pep0
 Hartree-Fock type      HFTyp           .... UHF
 Total Charge           Charge          ....    0
 Multiplicity           Mult            ....    3
 Number of Electrons    NEL             ....    6
 Basis Dimension        Dim             ....   31
 Nuclear Repulsion      ENuc            ....      0.0000000000 Eh

Convergence Acceleration:
 DIIS                   CNVDIIS         .... on
   Start iteration      DIISMaxIt       ....    12
   Startup error        DIISStart       ....  0.200000
   # of expansion vecs  DIISMaxEq       ....     5
   Bias factor          DIISBfac        ....   1.050
   Max. coefficient     DIISMaxC        ....  10.000
 Newton-Raphson         CNVNR           .... off
 SOSCF                  CNVSOSCF        .... off
 Level Shifting         CNVShift        .... on
   Level shift para.    LevelShift      ....    0.2500
   Turn off err/grad.   ShiftErr        ....    0.0010
 Zerner damping         CNVZerner       .... off
 Static damping         CNVDamp         .... on
   Fraction old density DampFac         ....    0.7000
   Max. Damping (<1)    DampMax         ....    0.9800
   Min. Damping (>=0)   DampMin         ....    0.0000
   Turn off err/grad.   DampErr         ....    0.1000
 Fernandez-Rico         CNVRico         .... off

SCF Procedure:
 Maximum # iterations   MaxIter         ....   125
 SCF integral mode      SCFMode         .... Direct
   Integral package                     .... LIBINT
 Reset frequeny         DirectResetFreq ....    20
 Integral Threshold     Thresh          ....  2.500e-11 Eh
 Primitive CutOff       TCut            ....  2.500e-12 Eh

Convergence Tolerance:
 Convergence Check Mode ConvCheckMode   .... Total+1el-Energy
 Energy Change          TolE            ....  1.000e-08 Eh
 1-El. energy change                    ....  1.000e-05 Eh
 DIIS Error             TolErr          ....  5.000e-07


Diagonalization of the overlap matrix:
Smallest eigenvalue                        ... 2.860e-02
Time for diagonalization                   ...    0.001 sec
Threshold for overlap eigenvalues          ... 1.000e-08
Number of eigenvalues below threshold      ... 0
Time for construction of square roots      ...    0.000 sec
Total time needed                          ...    0.001 sec

-------------------
DFT GRID GENERATION
-------------------

General Integration Accuracy     IntAcc      ...  4.340
Radial Grid Type                 RadialGrid  ... Gauss-Chebyshev
Angular Grid (max. acc.)         AngularGrid ... Lebedev-110
Angular grid pruning method      GridPruning ... 3 (G Style)
Weight generation scheme         WeightScheme... Becke
Basis function cutoff            BFCut       ...    1.0000e-11
Integration weight cutoff        WCut        ...    1.0000e-14
Grids for H and He will be reduced by one unit

# of grid points (after initial pruning)     ...   1656 (   0.0 sec)
# of grid points (after weights+screening)   ...   1656 (   0.0 sec)
Grid point division into batches done        ...    0.0 sec
Reduced shell lists constructed in    0.0 sec

Total number of grid points                  ...     1656
Total number of batches                      ...       26
Average number of points per batch           ...       63
Average number of grid points per atom       ...     1656
Average number of shells per batch           ...     9.78 (88.89%)
Average number of basis functions per batch  ...    28.74 (92.71%)
Average number of large shells per batch     ...     9.22 (94.32%)
Average number of large basis fcns per batch ...    26.93 (93.69%)
Maximum spatial batch extension              ...  16.97, 31.36, 31.36 au
Average spatial batch extension              ...   8.51,  9.96, 11.35 au

Time for grid setup =    0.006 sec

------------------------------
INITIAL GUESS: MODEL POTENTIAL
------------------------------
Loading Hartree-Fock densities                     ... done
Calculating cut-offs                               ... done
Setting up the integral package                    ... done
Initializing the effective Hamiltonian             ... done
Starting the Coulomb interaction                   ... done (   0.0 sec)
Reading the grid                                   ... done
Mapping shells                                     ... done
Starting the XC term evaluation                    ... done (   0.0 sec)
  promolecular density results
     # of electrons  =      6.000002752
     EX              =     -4.928585793
     EC              =     -0.156722019
     EX+EC           =     -5.085307811
Transforming the Hamiltonian                       ... done (   0.0 sec)
Diagonalizing the Hamiltonian                      ... done (   0.0 sec)
Back transforming the eigenvectors                 ... done (   0.0 sec)
Now organizing SCF variables                       ... done
                      ------------------
                      INITIAL GUESS DONE (   0.1 sec)
                      ------------------
--------------
SCF ITERATIONS
--------------
ITER       Energy         Delta-E        Max-DP      RMS-DP      [F,P]     Damp
               ***  Starting incremental Fock matrix formation  ***
  0    -37.7985471083   0.000000000000 0.00998873  0.00059888  0.0368192 0.7000
  1    -37.8005888424  -0.002041734103 0.00978033  0.00056847  0.0263985 0.7000
                               ***Turning on DIIS***
  2    -37.8020306085  -0.001441766004 0.02490431  0.00143717  0.0171630 0.0000
  3    -37.8051398023  -0.003109193803 0.00796642  0.00033816  0.0107127 0.0000
  4    -37.8053255568  -0.000185754519 0.00243398  0.00012118  0.0022698 0.0000
  5    -37.8053435000  -0.000017943189 0.00192323  0.00007103  0.0004955 0.0000
  6    -37.8053456737  -0.000002173713 0.00016417  0.00000746  0.0000555 0.0000
  7    -37.8053457000  -0.000000026278 0.00001270  0.00000050  0.0000046 0.0000
                 **** Energy Check signals convergence ****

               *****************************************************
               *                     SUCCESS                       *
               *           SCF CONVERGED AFTER   8 CYCLES          *
               *****************************************************

Setting up the final grid:

General Integration Accuracy     IntAcc      ...  4.670
Radial Grid Type                 RadialGrid  ... Gauss-Chebyshev
Angular Grid (max. acc.)         AngularGrid ... Lebedev-302
Angular grid pruning method      GridPruning ... 3 (G Style)
Weight generation scheme         WeightScheme... Becke
Basis function cutoff            BFCut       ...    1.0000e-11
Integration weight cutoff        WCut        ...    1.0000e-14
Grids for H and He will be reduced by one unit

# of grid points (after initial pruning)     ...   6212 (   0.0 sec)
# of grid points (after weights+screening)   ...   6212 (   0.0 sec)
Grid point division into batches done        ...    0.0 sec
Reduced shell lists constructed in    0.0 sec

Total number of grid points                  ...     6212
Total number of batches                      ...       98
Average number of points per batch           ...       63
Average number of grid points per atom       ...     6212
Average number of shells per batch           ...     8.93 (81.18%)
Average number of basis functions per batch  ...    25.94 (83.68%)
Average number of large shells per batch     ...     8.26 (92.53%)
Average number of large basis fcns per batch ...    24.10 (92.91%)
Maximum spatial batch extension              ...  26.79, 20.64, 18.61 au
Average spatial batch extension              ...   5.50,  5.30,  5.04 au

Final grid set up in    0.0 sec
Final integration                            ... done (   0.1 sec)
Change in XC energy                          ...    -0.000041193
Integrated number of electrons               ...     6.000000474
Previous integrated no of electrons          ...     6.000000112

----------------
TOTAL SCF ENERGY
----------------

Total Energy       :          -37.80538689 Eh           -1028.73688 eV

Components:
Nuclear Repulsion  :            0.00000000 Eh               0.00000 eV
Electronic Energy  :          -37.80538689 Eh           -1028.73688 eV

One Electron Energy:          -50.46172923 Eh           -1373.13346 eV
Two Electron Energy:           12.65634233 Eh             344.39658 eV

Virial components:
Potential Energy   :          -75.49673871 Eh           -2054.37070 eV
Kinetic Energy     :           37.69135182 Eh            1025.63383 eV
Virial Ratio       :            2.00302550


DFT components:
N(Alpha)           :        4.000000236920 electrons
N(Beta)            :        2.000000237352 electrons
N(Total)           :        6.000000474272 electrons
E(X)               :       -3.768840665909 Eh       
E(C)               :       -0.144437333775 Eh       
E(XC)              :       -3.913277999684 Eh       

---------------
SCF CONVERGENCE
---------------

  Last Energy change         ...   -2.9608e-10  Tolerance :   1.0000e-08
  Last MAX-Density change    ...    2.6716e-06  Tolerance :   1.0000e-07
  Last RMS-Density change    ...    1.3813e-07  Tolerance :   5.0000e-09
  Last DIIS Error            ...    1.3624e-06  Tolerance :   5.0000e-07

             **** THE GBW FILE WAS UPDATED (c-pep0.gbw) ****
             **** DENSITY FILE WAS UPDATED (c-pep0.scfp.tmp) ****
             **** ENERGY FILE WAS UPDATED (c-pep0.en.tmp) ****
----------------------
UHF SPIN CONTAMINATION
----------------------

Warning: in a DFT calculation there is little theoretical justification to 
         calculate <S**2> as in Hartree-Fock theory. We will do it anyways
         but you should keep in mind that the values have only limited relevance

Expectation value of <S**2>     :     2.003741
Ideal value S*(S+1) for S=1.0   :     2.000000
Deviation                       :     0.003741

----------------
ORBITAL ENERGIES
----------------
                 SPIN UP ORBITALS
  NO   OCC          E(Eh)            E(eV) 
   0   1.0000     -10.359563      -281.8980 
   1   1.0000      -0.609151       -16.5759 
   2   1.0000      -0.280282        -7.6269 
   3   1.0000      -0.280282        -7.6269 
   4   0.0000      -0.147056        -4.0016 
   5   0.0000       0.145440         3.9576 
   6   0.0000       0.224659         6.1133 
   7   0.0000       0.224659         6.1133 
   8   0.0000       0.240530         6.5451 
   9   0.0000       0.652981        17.7685 
  10   0.0000       0.652988        17.7687 
  11   0.0000       0.659495        17.9458 
  12   0.0000       0.659495        17.9458 
  13   0.0000       0.669315        18.2130 
  14   0.0000       1.209265        32.9058 
  15   0.0000       1.368567        37.2406 
  16   0.0000       1.368567        37.2406 
  17   0.0000       1.394187        37.9378 
  18   0.0000       2.636544        71.7440 
  19   0.0000       2.636781        71.7505 
  20   0.0000       2.639817        71.8331 
  21   0.0000       2.639817        71.8331 
  22   0.0000       2.641176        71.8701 
  23   0.0000       2.641176        71.8701 
  24   0.0000       2.647551        72.0435 
  25   0.0000       2.897459        78.8439 
  26   0.0000       2.897543        78.8462 
  27   0.0000       2.905083        79.0513 
  28   0.0000       2.905083        79.0513 
  29   0.0000       2.921098        79.4871 
  30   0.0000      21.232851       577.7752 

                 SPIN DOWN ORBITALS
  NO   OCC          E(Eh)            E(eV) 
   0   1.0000     -10.328282      -281.0468 
   1   1.0000      -0.485119       -13.2008 
   2   0.0000      -0.113503        -3.0886 
   3   0.0000      -0.057830        -1.5736 
   4   0.0000      -0.057830        -1.5736 
   5   0.0000       0.181544         4.9401 
   6   0.0000       0.260184         7.0800 
   7   0.0000       0.290935         7.9168 
   8   0.0000       0.290935         7.9168 
   9   0.0000       0.706978        19.2378 
  10   0.0000       0.716917        19.5083 
  11   0.0000       0.716917        19.5083 
  12   0.0000       0.748397        20.3649 
  13   0.0000       0.748400        20.3650 
  14   0.0000       1.278759        34.7968 
  15   0.0000       1.418796        38.6074 
  16   0.0000       1.467309        39.9275 
  17   0.0000       1.467309        39.9275 
  18   0.0000       2.691923        73.2510 
  19   0.0000       2.699882        73.4675 
  20   0.0000       2.699882        73.4675 
  21   0.0000       2.721819        74.0645 
  22   0.0000       2.721915        74.0671 
  23   0.0000       2.757655        75.0396 
  24   0.0000       2.757655        75.0396 
  25   0.0000       2.967132        80.7398 
  26   0.0000       2.986325        81.2620 
  27   0.0000       2.986325        81.2620 
  28   0.0000       3.037447        82.6531 
  29   0.0000       3.037504        82.6547 
  30   0.0000      21.265424       578.6616 

                    ********************************
                    * MULLIKEN POPULATION ANALYSIS *
                    ********************************

--------------------------------------------
MULLIKEN ATOMIC CHARGES AND SPIN POPULATIONS
--------------------------------------------
   0 C :   -0.000000    2.000000
Sum of atomic charges         :   -0.0000000
Sum of atomic spin populations:    2.0000000

-----------------------------------------------------
MULLIKEN REDUCED ORBITAL CHARGES AND SPIN POPULATIONS
-----------------------------------------------------
CHARGE
  0 C s       :     3.998672  s :     3.998672
      pz      :     0.999990  p :     1.999999
      px      :     0.000011
      py      :     0.999999
      dz2     :     0.000332  d :     0.001328
      dxz     :     0.000000
      dyz     :     0.000000
      dx2y2   :     0.000996
      dxy     :     0.000000
      f0      :     0.000000  f :     0.000001
      f+1     :     0.000000
      f-1     :     0.000000
      f+2     :     0.000000
      f-2     :     0.000000
      f+3     :     0.000000
      f-3     :     0.000000

SPIN
  0 C s       :     0.000870  s :     0.000870
      pz      :     0.999990  p :     1.999999
      px      :     0.000011
      py      :     0.999999
      dz2     :    -0.000217  d :    -0.000870
      dxz     :    -0.000000
      dyz     :    -0.000000
      dx2y2   :    -0.000652
      dxy     :    -0.000000
      f0      :     0.000000  f :     0.000001
      f+1     :     0.000000
      f-1     :     0.000000
      f+2     :     0.000000
      f-2     :     0.000000
      f+3     :     0.000000
      f-3     :     0.000000


                     *******************************
                     * LOEWDIN POPULATION ANALYSIS *
                     *******************************

-------------------------------------------
LOEWDIN ATOMIC CHARGES AND SPIN POPULATIONS
-------------------------------------------
   0 C :   -0.000000    2.000000

----------------------------------------------------
LOEWDIN REDUCED ORBITAL CHARGES AND SPIN POPULATIONS
----------------------------------------------------
CHARGE
  0 C s       :     3.998672  s :     3.998672
      pz      :     0.999990  p :     1.999999
      px      :     0.000011
      py      :     0.999999
      dz2     :     0.000332  d :     0.001328
      dxz     :     0.000000
      dyz     :     0.000000
      dx2y2   :     0.000996
      dxy     :     0.000000
      f0      :     0.000000  f :     0.000001
      f+1     :     0.000000
      f-1     :     0.000000
      f+2     :     0.000000
      f-2     :     0.000000
      f+3     :     0.000000
      f-3     :     0.000000

SPIN
  0 C s       :     0.000870  s :     0.000870
      pz      :     0.999990  p :     1.999999
      px      :     0.000011
      py      :     0.999999
      dz2     :    -0.000217  d :    -0.000870
      dxz     :    -0.000000
      dyz     :    -0.000000
      dx2y2   :    -0.000652
      dxy     :    -0.000000
      f0      :     0.000000  f :     0.000001
      f+1     :     0.000000
      f-1     :     0.000000
      f+2     :     0.000000
      f-2     :     0.000000
      f+3     :     0.000000
      f-3     :     0.000000


                      *****************************
                      * MAYER POPULATION ANALYSIS *
                      *****************************

  NA   - Mulliken gross atomic population
  ZA   - Total nuclear charge
  QA   - Mulliken gross atomic charge
  VA   - Mayer's total valence
  BVA  - Mayer's bonded valence
  FA   - Mayer's free valence

  ATOM       NA         ZA         QA         VA         BVA        FA
  0 C      6.0000     6.0000    -0.0000     2.0075     0.0000     2.0075

  Mayer bond orders larger than 0.1


-------
TIMINGS
-------

Total SCF time: 0 days 0 hours 0 min 1 sec 

Total time                  ....       1.412 sec
Sum of individual times     ....       1.521 sec  (107.7%)

Fock matrix formation       ....       1.357 sec  ( 96.1%)
  Coulomb formation         ....       1.200 sec  ( 88.4% of F)
  XC integration            ....       0.155 sec  ( 11.4% of F)
    Basis function eval.    ....       0.025 sec  ( 16.3% of XC)
    Density eval.           ....       0.028 sec  ( 18.2% of XC)
    XC-Functional eval.     ....       0.024 sec  ( 15.5% of XC)
    XC-Potential eval.      ....       0.032 sec  ( 20.4% of XC)
Diagonalization             ....       0.007 sec  (  0.5%)
Density matrix formation    ....       0.000 sec  (  0.0%)
Population analysis         ....       0.001 sec  (  0.1%)
Initial guess               ....       0.107 sec  (  7.5%)
Orbital Transformation      ....       0.000 sec  (  0.0%)
Orbital Orthonormalization  ....       0.000 sec  (  0.0%)
DIIS solution               ....       0.001 sec  (  0.1%)
Grid generation             ....       0.048 sec  (  3.4%)

-------------------------   --------------------
FINAL SINGLE POINT ENERGY       -37.805386893438
-------------------------   --------------------


                            ***************************************
                            *     ORCA property calculations      *
                            ***************************************

                                    ---------------------
                                    Active property flags
                                    ---------------------
   (+) Dipole Moment


------------------------------------------------------------------------------
                       ORCA ELECTRIC PROPERTIES CALCULATION
------------------------------------------------------------------------------

Dipole Moment Calculation                       ... on
Quadrupole Moment Calculation                   ... off
Polarizability Calculation                      ... off
GBWName                                         ... c-pep0.gbw
Electron density file                           ... c-pep0.scfp.tmp

-------------
DIPOLE MOMENT
-------------
                                X             Y             Z
Electronic contribution:      0.00000      -0.00000       0.00000
Nuclear contribution   :      0.00000       0.00000       0.00000
                        -----------------------------------------
Total Dipole Moment    :      0.00000      -0.00000       0.00000
                        -----------------------------------------
Magnitude (a.u.)       :      0.00000
Magnitude (Debye)      :      0.00000


Timings for individual modules:

Sum of individual times         ...        1.731 sec (=   0.029 min)
GTO integral calculation        ...        0.201 sec (=   0.003 min)  11.6 %
SCF iterations                  ...        1.530 sec (=   0.026 min)  88.4 %
                             ****ORCA TERMINATED NORMALLY****
TOTAL RUN TIME: 0 days 0 hours 0 minutes 1 seconds 852 msec
