
                                 *****************
                                 * O   R   C   A *
                                 *****************

           --- An Ab Initio, DFT and Semiempirical electronic structure package ---

                  #######################################################
                  #                        -***-                        #
                  #  Department of molecular theory and spectroscopy    #
                  #              Directorship: Frank Neese              #
                  # Max Planck Institute for Chemical Energy Conversion #
                  #                  D-45470 Muelheim/Ruhr              #
                  #                       Germany                       #
                  #                                                     #
                  #                  All rights reserved                #
                  #                        -***-                        #
                  #######################################################


                         Program Version 3.0.3 - RELEASE   -


 With contributions from (in alphabetic order):
   Ute Becker             : Parallelization
   Dmytro Bykov           : SCF Hessian
   Dmitry Ganyushin       : Spin-Orbit,Spin-Spin,Magnetic field MRCI
   Andreas Hansen         : Spin unrestricted coupled pair/coupled cluster methods
   Dimitrios Liakos       : Extrapolation schemes; parallel MDCI
   Robert Izsak           : Overlap fitted RIJCOSX, COSX-SCS-MP3
   Christian Kollmar      : KDIIS, OOCD, Brueckner-CCSD(T), CCSD density
   Simone Kossmann        : Meta GGA functionals, TD-DFT gradient, OOMP2, MP2 Hessian
   Taras Petrenko         : DFT Hessian,TD-DFT gradient, ASA and ECA modules, normal mode analysis, Resonance Raman, ABS, FL, XAS/XES, NRVS
   Christoph Reimann      : Effective Core Potentials
   Michael Roemelt        : Restricted open shell CIS
   Christoph Riplinger    : Improved optimizer, TS searches, QM/MM, DLPNO-CCSD
   Barbara Sandhoefer     : DKH picture change effects
   Igor Schapiro          : Molecular dynamics
   Kantharuban Sivalingam : CASSCF convergence, NEVPT2
   Boris Wezisla          : Elementary symmetry handling
   Frank Wennmohs         : Technical directorship


 We gratefully acknowledge several colleagues who have allowed us to
 interface, adapt or use parts of their codes:
   Stefan Grimme, W. Hujo, H. Kruse, T. Risthaus : VdW corrections, initial TS optimization,
                                                   DFT functionals, gCP
   Ed Valeev                                     : LibInt (2-el integral package), F12 methods
   Garnet Chan, S. Sharma, R. Olivares           : DMRG
   Ulf Ekstrom                                   : XCFun DFT Library
   Mihaly Kallay                                 : mrcc  (arbitrary order and MRCC methods)
   Andreas Klamt, Michael Diedenhofen            : otool_cosmo (COSMO solvation model)
   Frank Weinhold                                : gennbo (NPA and NBO analysis)
   Christopher J. Cramer and Donald G. Truhlar   : smd solvation model


 Your calculation uses the libint2 library for the computation of 2-el integrals
 For citations please refer to: http://libint.valeyev.net

 This ORCA versions uses:
   CBLAS   interface :  Fast vector & matrix operations
   LAPACKE interface :  Fast linear algebra routines
   SCALAPACK package :  Parallel linear algebra routines


Your calculation utilizes the basis: Ahlrichs-TZV
Cite in your paper:
H - Kr: A. Schaefer, H. Horn and R. Ahlrichs, J. Chem. Phys. 97, 2571 (1992).

The def2-TZV basis will be loaded
Cite in your paper:
 	F. Weigend, R. Ahlrichs, Phys. Chem. Chem. Phys. 2005, 7, 3297.

================================================================================
                                        WARNINGS
                       Please study these warnings very carefully!
================================================================================
Now building the actual basis set

WARNING: your system is open-shell and RHF/RKS was chosen
  ===> : WILL SWITCH to UHF/UKS



INFO   : the flag for use of LIBINT has been found!

================================================================================
                                       INPUT FILE
================================================================================
NAME = c.inp
|  1> ! RI-MP2 RIJK def2-TZVP def2-TZVP/C def2-TZVP/JK TIGHTSCF
|  2> % maxcore 2000
|  3> % mp2 density relaxed end
|  4> *xyz 0 3
|  5>  C       0.0000000     0.0000000     0.000000000
|  6> *
|  7> 
|  8>                          ****END OF INPUT****
================================================================================

                       ****************************
                       * Single Point Calculation *
                       ****************************

---------------------------------
CARTESIAN COORDINATES (ANGSTROEM)
---------------------------------
  C      0.000000    0.000000    0.000000

----------------------------
CARTESIAN COORDINATES (A.U.)
----------------------------
  NO LB      ZA    FRAG    MASS        X           Y           Z
   0 C     6.0000    0    12.011          0.000000000000000          0.000000000000000          0.000000000000000

--------------------------------
INTERNAL COORDINATES (ANGSTROEM)
--------------------------------
 C      0   0   0   0.000000     0.000     0.000

---------------------------
INTERNAL COORDINATES (A.U.)
---------------------------
 C      0   0   0   0.000000     0.000     0.000

---------------------
BASIS SET INFORMATION
---------------------
There are 1 groups of distinct atoms

 Group   1 Type C   : 11s6p2d1f contracted to 5s3p2d1f pattern {62111/411/11/1}

Atom   0C    basis set group =>   1
-------------------------------
AUXILIARY BASIS SET INFORMATION
-------------------------------
There are 1 groups of distinct atoms

 Group   1 Type C   : 14s10p6d2f1g contracted to 10s8p5d1f1g pattern {5111111111/31111111/21111/2/1}

Atom   0C    basis set group =>   1
------------------------------------------------------------------------------
                           ORCA GTO INTEGRAL CALCULATION
                           -- RI-GTO INTEGRALS CHOSEN --
------------------------------------------------------------------------------

                         BASIS SET STATISTICS AND STARTUP INFO

Gaussian basis set:
 # of primitive gaussian shells          ...   20
 # of primitive gaussian functions       ...   46
 # of contracted shells                  ...   11
 # of contracted basis functions         ...   31
 Highest angular momentum                ...    3
 Maximum contraction depth               ...    6
Auxiliary gaussian basis set:
 # of primitive gaussian shells          ...   33
 # of primitive gaussian functions       ...   97
 # of contracted shells                  ...   25
 # of contracted aux-basis functions     ...   75
 Highest angular momentum                ...    4
 Maximum contraction depth               ...    5
Ratio of auxiliary to basis functions    ...  2.42
Integral package used                  ... LIBINT
 One Electron integrals                  ... done
 Ordering auxiliary basis shells         ... done
 Integral threshhold             Thresh  ...  2.500e-11
 Primitive cut-off               TCut    ...  2.500e-12
 Pre-screening matrix                    ... done
 Shell pair data                         ... 
 Ordering of the shell pairs             ... done (   0.000 sec) 66 of 66 pairs
 Determination of significant pairs      ... done (   0.000 sec)
 Creation of shell pair data             ... done (   0.000 sec)
 Storage of shell pair data              ... done (   0.000 sec)
 Shell pair data done in (   0.000 sec)
 Computing two index integrals           ... done
 Cholesky decomposition of the V-matrix  ... done


Timings:
 Total evaluation time                   ...   0.102 sec (  0.002 min)
 One electron matrix time                ...   0.003 sec (  0.000 min) =  2.6%
 Schwartz matrix evaluation time         ...   0.075 sec (  0.001 min) = 73.8%
 Two index repulsion integral time       ...   0.000 sec (  0.000 min) =  0.2%
 Cholesky decomposition of V             ...   0.000 sec (  0.000 min) =  0.2%
 Three index repulsion integral time     ...   0.000 sec (  0.000 min) =  0.0%

-------------------------------------------------------------------------------
                                 ORCA SCF
-------------------------------------------------------------------------------

------------
SCF SETTINGS
------------
Hamiltonian:
 Ab initio Hamiltonian  Method          .... Hartree-Fock(GTOs)
 RI-approximation to the Coulomb term is turned on
   Number of auxiliary basis functions  .... 75
   RI-JK (J+K treated both via RI)      .... on


General Settings:
 Integral files         IntName         .... c
 Hartree-Fock type      HFTyp           .... UHF
 Total Charge           Charge          ....    0
 Multiplicity           Mult            ....    3
 Number of Electrons    NEL             ....    6
 Basis Dimension        Dim             ....   31
 Nuclear Repulsion      ENuc            ....      0.0000000000 Eh

Convergence Acceleration:
 DIIS                   CNVDIIS         .... on
   Start iteration      DIISMaxIt       ....    12
   Startup error        DIISStart       ....  0.200000
   # of expansion vecs  DIISMaxEq       ....     5
   Bias factor          DIISBfac        ....   1.050
   Max. coefficient     DIISMaxC        ....  10.000
 Newton-Raphson         CNVNR           .... off
 SOSCF                  CNVSOSCF        .... off
 Level Shifting         CNVShift        .... on
   Level shift para.    LevelShift      ....    0.2500
   Turn off err/grad.   ShiftErr        ....    0.0010
 Zerner damping         CNVZerner       .... off
 Static damping         CNVDamp         .... on
   Fraction old density DampFac         ....    0.7000
   Max. Damping (<1)    DampMax         ....    0.9800
   Min. Damping (>=0)   DampMin         ....    0.0000
   Turn off err/grad.   DampErr         ....    0.1000
 Fernandez-Rico         CNVRico         .... off

SCF Procedure:
 Maximum # iterations   MaxIter         ....   125
 SCF integral mode      SCFMode         .... Direct
   Integral package                     .... LIBINT
 Reset frequeny         DirectResetFreq ....    20
 Integral Threshold     Thresh          ....  2.500e-11 Eh
 Primitive CutOff       TCut            ....  2.500e-12 Eh

Convergence Tolerance:
 Convergence Check Mode ConvCheckMode   .... Total+1el-Energy
 Energy Change          TolE            ....  1.000e-08 Eh
 1-El. energy change                    ....  1.000e-05 Eh
 DIIS Error             TolErr          ....  5.000e-07


Diagonalization of the overlap matrix:
Smallest eigenvalue                        ... 2.860e-02
Time for diagonalization                   ...    0.001 sec
Threshold for overlap eigenvalues          ... 1.000e-08
Number of eigenvalues below threshold      ... 0
Time for construction of square roots      ...    0.000 sec
Total time needed                          ...    0.001 sec

-------------------
DFT GRID GENERATION
-------------------

General Integration Accuracy     IntAcc      ...  4.340
Radial Grid Type                 RadialGrid  ... Gauss-Chebyshev
Angular Grid (max. acc.)         AngularGrid ... Lebedev-110
Angular grid pruning method      GridPruning ... 3 (G Style)
Weight generation scheme         WeightScheme... Becke
Basis function cutoff            BFCut       ...    1.0000e-11
Integration weight cutoff        WCut        ...    1.0000e-14
Grids for H and He will be reduced by one unit

# of grid points (after initial pruning)     ...   1656 (   0.0 sec)
# of grid points (after weights+screening)   ...   1656 (   0.0 sec)
Grid point division into batches done        ...    0.0 sec
Reduced shell lists constructed in    0.0 sec

Total number of grid points                  ...     1656
Total number of batches                      ...       26
Average number of points per batch           ...       63
Average number of grid points per atom       ...     1656
Average number of shells per batch           ...     9.78 (88.89%)
Average number of basis functions per batch  ...    28.74 (92.71%)
Average number of large shells per batch     ...     9.22 (94.32%)
Average number of large basis fcns per batch ...    26.93 (93.69%)
Average number of aux-shells per batch       ...     9.78 (39.11%)
Average number of aux functions per batch    ...    28.74 (  inf%)
Maximum spatial batch extension              ...  16.97, 31.36, 31.36 au
Average spatial batch extension              ...   8.51,  9.96, 11.35 au

Time for grid setup =    0.011 sec

------------------------------
INITIAL GUESS: MODEL POTENTIAL
------------------------------
Loading Hartree-Fock densities                     ... done
Calculating cut-offs                               ... done
Setting up the integral package                    ... done
Initializing the effective Hamiltonian             ... done
Starting the Coulomb interaction                   ... done (   0.0 sec)
Reading the grid                                   ... done
Mapping shells                                     ... done
Starting the XC term evaluation                    ... done (   0.0 sec)
Transforming the Hamiltonian                       ... done (   0.0 sec)
Diagonalizing the Hamiltonian                      ... done (   0.0 sec)
Back transforming the eigenvectors                 ... done (   0.0 sec)
Now organizing SCF variables                       ... done
                      ------------------
                      INITIAL GUESS DONE (   0.1 sec)
                      ------------------
--------------
SCF ITERATIONS
--------------
ITER       Energy         Delta-E        Max-DP      RMS-DP      [F,P]     Damp
  0    -37.6772555431   0.000000000000 0.01070974  0.00067218  0.2314451 0.7000
  1    -37.7076715536  -0.030416010489 0.01293485  0.00080658  0.1884553 0.7000
                               ***Turning on DIIS***
  2    -37.7131038670  -0.005432313358 0.01164440  0.00073792  0.1277119 0.7000
  3    -37.6520649589   0.061038908060 0.03269555  0.00220353  0.0825722 0.0000
  4    -37.7012576194  -0.049192660492 0.00585221  0.00037587  0.0136946 0.0000
  5    -37.7005744672   0.000683152251 0.00464885  0.00018355  0.0038064 0.0000
  6    -37.6946842050   0.005890262205 0.00231839  0.00009140  0.0008460 0.0000
  7    -37.6927605611   0.001923643903 0.00034101  0.00001728  0.0001496 0.0000
  8    -37.6925870994   0.000173461692 0.00006039  0.00000455  0.0000483 0.0000
  9    -37.6924855731   0.000101526279 0.00003451  0.00000132  0.0000083 0.0000
 10    -37.6924811300   0.000004443066 0.00000609  0.00000031  0.0000015 0.0000
                            ***DIIS convergence achieved***

               *****************************************************
               *                     SUCCESS                       *
               *           SCF CONVERGED AFTER  11 CYCLES          *
               *****************************************************


----------------
TOTAL SCF ENERGY
----------------

Total Energy       :          -37.69248019 Eh           -1025.66453 eV

Components:
Nuclear Repulsion  :            0.00000000 Eh               0.00000 eV
Electronic Energy  :          -37.69248019 Eh           -1025.66453 eV

One Electron Energy:          -50.45045249 Eh           -1372.82661 eV
Two Electron Energy:           12.75797231 Eh             347.16208 eV

Virial components:
Potential Energy   :          -75.38663043 Eh           -2051.37450 eV
Kinetic Energy     :           37.69415025 Eh            1025.70997 eV
Virial Ratio       :            1.99995569


---------------
SCF CONVERGENCE
---------------

  Last Energy change         ...    9.4414e-07  Tolerance :   1.0000e-08
  Last MAX-Density change    ...    8.9064e-07  Tolerance :   1.0000e-07
  Last RMS-Density change    ...    4.4649e-08  Tolerance :   5.0000e-09
  Last DIIS Error            ...    2.0241e-07  Tolerance :   5.0000e-07

             **** THE GBW FILE WAS UPDATED (c.gbw) ****
             **** DENSITY FILE WAS UPDATED (c.scfp.tmp) ****
             **** ENERGY FILE WAS UPDATED (c.en.tmp) ****
----------------------
UHF SPIN CONTAMINATION
----------------------

Expectation value of <S**2>     :     2.009981
Ideal value S*(S+1) for S=1.0   :     2.000000
Deviation                       :     0.009981

----------------
ORBITAL ENERGIES
----------------
                 SPIN UP ORBITALS
  NO   OCC          E(Eh)            E(eV) 
   0   1.0000     -11.345385      -308.7236 
   1   1.0000      -0.828804       -22.5529 
   2   1.0000      -0.438834       -11.9413 
   3   1.0000      -0.438834       -11.9413 
   4   0.0000       0.030122         0.8197 
   5   0.0000       0.240711         6.5501 
   6   0.0000       0.325257         8.8507 
   7   0.0000       0.325257         8.8507 
   8   0.0000       0.382324        10.4036 
   9   0.0000       0.821316        22.3491 
  10   0.0000       0.821316        22.3491 
  11   0.0000       0.839788        22.8518 
  12   0.0000       0.839788        22.8518 
  13   0.0000       0.847273        23.0555 
  14   0.0000       1.432294        38.9747 
  15   0.0000       1.642303        44.6893 
  16   0.0000       1.642303        44.6893 
  17   0.0000       1.690011        45.9875 
  18   0.0000       2.934538        79.8528 
  19   0.0000       2.936469        79.9054 
  20   0.0000       2.936469        79.9054 
  21   0.0000       2.942200        80.0613 
  22   0.0000       2.942200        80.0613 
  23   0.0000       2.951542        80.3155 
  24   0.0000       2.951542        80.3155 
  25   0.0000       3.249981        88.4365 
  26   0.0000       3.249981        88.4365 
  27   0.0000       3.254994        88.5729 
  28   0.0000       3.254994        88.5729 
  29   0.0000       3.257034        88.6284 
  30   0.0000      22.262143       605.7837 

                 SPIN DOWN ORBITALS
  NO   OCC          E(Eh)            E(eV) 
   0   1.0000     -11.299561      -307.4767 
   1   1.0000      -0.583089       -15.8667 
   2   0.0000       0.061222         1.6659 
   3   0.0000       0.110163         2.9977 
   4   0.0000       0.110163         2.9977 
   5   0.0000       0.272007         7.4017 
   6   0.0000       0.406731        11.0677 
   7   0.0000       0.451340        12.2816 
   8   0.0000       0.451340        12.2816 
   9   0.0000       0.888501        24.1774 
  10   0.0000       0.899376        24.4733 
  11   0.0000       0.899376        24.4733 
  12   0.0000       0.934972        25.4419 
  13   0.0000       0.934972        25.4419 
  14   0.0000       1.500505        40.8308 
  15   0.0000       1.716449        46.7070 
  16   0.0000       1.770129        48.1677 
  17   0.0000       1.770129        48.1677 
  18   0.0000       2.974594        80.9428 
  19   0.0000       2.981873        81.1409 
  20   0.0000       2.981873        81.1409 
  21   0.0000       3.003930        81.7411 
  22   0.0000       3.003930        81.7411 
  23   0.0000       3.041601        82.7662 
  24   0.0000       3.041601        82.7662 
  25   0.0000       3.302137        89.8557 
  26   0.0000       3.318291        90.2953 
  27   0.0000       3.318291        90.2953 
  28   0.0000       3.370563        91.7177 
  29   0.0000       3.370563        91.7177 
  30   0.0000      22.293183       606.6283 

                    ********************************
                    * MULLIKEN POPULATION ANALYSIS *
                    ********************************

--------------------------------------------
MULLIKEN ATOMIC CHARGES AND SPIN POPULATIONS
--------------------------------------------
   0 C :    0.000000    2.000000
Sum of atomic charges         :    0.0000000
Sum of atomic spin populations:    2.0000000

-----------------------------------------------------
MULLIKEN REDUCED ORBITAL CHARGES AND SPIN POPULATIONS
-----------------------------------------------------
CHARGE
  0 C s       :     3.997166  s :     3.997166
      pz      :     0.999997  p :     1.999997
      px      :     0.000003
      py      :     0.999996
      dz2     :     0.000708  d :     0.002834
      dxz     :     0.000000
      dyz     :     0.000000
      dx2y2   :     0.002125
      dxy     :     0.000000
      f0      :     0.000001  f :     0.000003
      f+1     :     0.000000
      f-1     :     0.000000
      f+2     :     0.000001
      f-2     :     0.000000
      f+3     :     0.000000
      f-3     :     0.000002

SPIN
  0 C s       :    -0.000211  s :    -0.000211
      pz      :     0.999997  p :     1.999997
      px      :     0.000003
      py      :     0.999996
      dz2     :     0.000053  d :     0.000211
      dxz     :     0.000000
      dyz     :     0.000000
      dx2y2   :     0.000159
      dxy     :     0.000000
      f0      :     0.000001  f :     0.000003
      f+1     :     0.000000
      f-1     :     0.000000
      f+2     :     0.000001
      f-2     :     0.000000
      f+3     :     0.000000
      f-3     :     0.000002


                     *******************************
                     * LOEWDIN POPULATION ANALYSIS *
                     *******************************

-------------------------------------------
LOEWDIN ATOMIC CHARGES AND SPIN POPULATIONS
-------------------------------------------
   0 C :    0.000000    2.000000

----------------------------------------------------
LOEWDIN REDUCED ORBITAL CHARGES AND SPIN POPULATIONS
----------------------------------------------------
CHARGE
  0 C s       :     3.997166  s :     3.997166
      pz      :     0.999997  p :     1.999997
      px      :     0.000003
      py      :     0.999996
      dz2     :     0.000708  d :     0.002834
      dxz     :     0.000000
      dyz     :     0.000000
      dx2y2   :     0.002125
      dxy     :     0.000000
      f0      :     0.000001  f :     0.000003
      f+1     :     0.000000
      f-1     :     0.000000
      f+2     :     0.000001
      f-2     :     0.000000
      f+3     :     0.000000
      f-3     :     0.000002

SPIN
  0 C s       :    -0.000211  s :    -0.000211
      pz      :     0.999997  p :     1.999997
      px      :     0.000003
      py      :     0.999996
      dz2     :     0.000053  d :     0.000211
      dxz     :     0.000000
      dyz     :     0.000000
      dx2y2   :     0.000159
      dxy     :     0.000000
      f0      :     0.000001  f :     0.000003
      f+1     :     0.000000
      f-1     :     0.000000
      f+2     :     0.000001
      f-2     :     0.000000
      f+3     :     0.000000
      f-3     :     0.000002


                      *****************************
                      * MAYER POPULATION ANALYSIS *
                      *****************************

  NA   - Mulliken gross atomic population
  ZA   - Total nuclear charge
  QA   - Mulliken gross atomic charge
  VA   - Mayer's total valence
  BVA  - Mayer's bonded valence
  FA   - Mayer's free valence

  ATOM       NA         ZA         QA         VA         BVA        FA
  0 C      6.0000     6.0000     0.0000     2.0200     0.0000     2.0200

  Mayer bond orders larger than 0.1


-------
TIMINGS
-------

Total SCF time: 0 days 0 hours 0 min 1 sec 

Total time                  ....       1.204 sec
Sum of individual times     ....       1.322 sec  (109.8%)

Fock matrix formation       ....       1.185 sec  ( 98.4%)
Diagonalization             ....       0.013 sec  (  1.1%)
Density matrix formation    ....       0.000 sec  (  0.0%)
Population analysis         ....       0.001 sec  (  0.1%)
Initial guess               ....       0.110 sec  (  9.1%)
Orbital Transformation      ....       0.000 sec  (  0.0%)
Orbital Orthonormalization  ....       0.000 sec  (  0.0%)
DIIS solution               ....       0.002 sec  (  0.2%)

   <<< Auxbasis replaced with c.AUXC.tmp (Dim=76) >>> 


------------------------------------------------------------------------------
                              ORCA MP2 CALCULATION
------------------------------------------------------------------------------

Freezing NCore=2 chemical core electrons

   <<< Use J-auxbasis for calculation of Separable RI-J derivative contributions c.AUXJ.tmp (Dim=75) >>> 


---------------------
RI-MP2 ENERGY+DENSITY
---------------------
Dimension of the basis                    ...   31
Memory devoted to MP2                     ... 2000 MB   
Data format for buffers                   ... DOUBLE
Compression type for matrix containers    ... UNCOMPRESSED
Overall scaling of the MP2 energy         ...   1.000e+00 Eh
Calculating two index integrals           ... done (    0.006 sec)
Cholesky decomposition of V**-1           ... done (    0.000 sec)

-----------------
RI-TRANSFORMATION (AUX index driven)
-----------------

Dimension of the orbital-basis         ... 31
Dimension of the aux-basis             ... 76
Transformation of internal MOs         ...    0-   3
Transformation of internal/external MOs...    0-   3 to    4-  30
Number Format for Storage              ... Double (8 Byte)
Integral mode                          ... Direct

First Phase: integral generation and transformation of MO indices
  Aux angular momentum 0               ... done (    0.001 sec)
  Aux angular momentum 1               ... done (    0.001 sec)
  Aux angular momentum 2               ... done (    0.001 sec)
  Aux angular momentum 3               ... done (    0.001 sec)
  Aux angular momentum 4               ... done (    0.000 sec)
Closing buffer VIJ ( 0.00 GB; CompressionRatio= 1.39)
Closing buffer VIA ( 0.00 GB; CompressionRatio= 0.99)
  Phase 1 completed in     0.085 sec
Second Phase: sorting and transformation of aux index

IJ-Transformation
Memory available                       ... 2000 MB 
Max. # MO pairs treated in a batch     ... 4    
# of internal orbitals                 ... 4
# batches for internal orbitals        ... 1
Closing buffer IJV ( 0.00 GB; CompressionRatio= 0.98)
(ij|v) transformation done in     0.000 sec

IA-Transformation
Memory available                       ... 2000 MB 
Max. # MO pairs treated in a batch     ... 4    
# of internal orbitals                 ... 4
# batches for internal orbitals        ... 1
Closing buffer IAV ( 0.00 GB; CompressionRatio= 1.00)
(ia|v) transformation done in     0.001 sec

  Phase 2 completed in     0.051 sec
RI-Integral transformation completed in     0.137 sec

-----------------
RI-TRANSFORMATION (AUX index driven)
-----------------

Dimension of the orbital-basis         ... 31
Dimension of the aux-basis             ... 76
Transformation of internal MOs         ...    0-   1
Transformation of internal/external MOs...    0-   1 to    2-  30
Number Format for Storage              ... Double (8 Byte)
Integral mode                          ... Direct

First Phase: integral generation and transformation of MO indices
  Aux angular momentum 0               ... done (    0.001 sec)
  Aux angular momentum 1               ... done (    0.001 sec)
  Aux angular momentum 2               ... done (    0.001 sec)
  Aux angular momentum 3               ... done (    0.001 sec)
  Aux angular momentum 4               ... done (    0.000 sec)
Closing buffer VIJ ( 0.00 GB; CompressionRatio= 0.89)
Closing buffer VIA ( 0.00 GB; CompressionRatio= 0.97)
  Phase 1 completed in     0.086 sec
Second Phase: sorting and transformation of aux index

IJ-Transformation
Memory available                       ... 2000 MB 
Max. # MO pairs treated in a batch     ... 2    
# of internal orbitals                 ... 2
# batches for internal orbitals        ... 1
Closing buffer IJV ( 0.00 GB; CompressionRatio= 0.98)
(ij|v) transformation done in     0.000 sec

IA-Transformation
Memory available                       ... 2000 MB 
Max. # MO pairs treated in a batch     ... 2    
# of internal orbitals                 ... 2
# batches for internal orbitals        ... 1
Closing buffer IAV ( 0.00 GB; CompressionRatio= 1.00)
(ia|v) transformation done in     0.000 sec

  Phase 2 completed in     0.035 sec
RI-Integral transformation completed in     0.122 sec
Opening buffers                              ... done
Frozen core precalculation                   ... done

Starting loop over batches of integrals:

Operator 0  - window                       ... (  1-  3)x(  4- 30)
Operator 0  - Memory available             ...  2000 MB
Operator 0  - Memory needed per MO         ...   0.0 MB
Operator 0  - Number of orbitals per batch ... 3
Operator 0  - Number of batches            ... 1

OPERATOR  0   PASS   0:  MOs     1 ...    3
  Reading integrals       ... ok
  Internal MO   3

Operator 1  - window                       ... (  1-  1)x(  2- 30)
Operator 1  - Memory available             ...  2000 MB
Operator 1  - Memory needed per MO         ...   0.0 MB
Operator 1  - Number of orbitals per batch ... 1
Operator 1  - Number of batches            ... 1

OPERATOR  1   PASS   0:  MOs     1 ...    1
  Reading integrals       ... ok
Time spent in pair loops =     0.005 sec
Deleting buffer (Ka|jb)[aa] ...done
Deleting buffer (Ka|jb)[ab] ...done
Deleting buffer (Ka|jb)[ba] ...done
Deleting buffer (Ka|jb)[bb] ...done

Correlation energy components}
 E2 and T2 for alpha/alpha pairs :     -0.012417860 Eh      0.000000000
 E2 and T2 for beta/beta   pairs :      0.000000000 Eh      0.000000000
 E2 and T2 for alpha/beta  pairs :     -0.053679901 Eh      0.000000000


-----------------------------------------------
 RI-MP2 CORRELATION ENERGY:     -0.066097760 Eh
-----------------------------------------------


---------------------
MP2 DENSITY FORMATION
---------------------

Completing the external part of the density      ... done
Storing the unrelaxed density                    ... done

Calculating G(D)                                 ... done
Completing the Lagrangian                        ... done
Solving the Z-vector equations                   ... 

------------------------------------------------------------------------------
                           ORCA CP-SCF CALCULATION
------------------------------------------------------------------------------

Input orbitals are from        ... c.gbw
Input Perturbation             ... c.pin.tmp
Wavefunction output            ... c.pout.tmp
Perturbation mode              ... Real perturbation
Solver                         ... POPLE
Max. number of iterations      ... 128
Convergence tolerance          ... 1.000e-08
Integral handling              ... Direct
Number of perturbations        ... 1
Number of operators            ... 2
Orbital ranges used for CP-SCF:
 Operator 0:  Orbitals   0...  3  to   4... 30
 Operator 1:  Orbitals   0...  1  to   2... 30
Variables per vector in CP-SCF ... 166
Number of vectors sought       ... 1
     CP-SCF ITERATION   0: 
     CP-SCF ITERATION   1:      0.000002290
     CP-SCF ITERATION   2:      0.000000034
     CP-SCF ITERATION   3:      0.000000000
done
Finalizing the relaxed density                   ... done
Transforming P to the AO basis                   ... done
Storing the relaxed density                      ... done

                *********************************************
                * UNRELAXED MP2 DENSITY POPULATION ANALYSIS *
                *********************************************

------------------------------------------------------------------------------
                           ORCA POPULATION ANALYSIS
------------------------------------------------------------------------------
Input electron density              ... c.pmp2ur
Input spin density                  ... c.rmp2ur
BaseName (.gbw .S,...)              ... c

                    ********************************
                    * MULLIKEN POPULATION ANALYSIS *
                    ********************************

------------------------------------------
MULLIKEN ATOMIC CHARGES AND SPIN DENSITIES
------------------------------------------
   0 C :    0.000000    2.000000
Sum of atomic charges       :    0.0000000
Sum of atomic spin densities:    2.0000000

---------------------------------------------------
MULLIKEN REDUCED ORBITAL CHARGES AND SPIN DENSITIES
---------------------------------------------------
CHARGE
  0 C s       :     3.972041  s :     3.972041
      pz      :     0.997158  p :     2.009166
      px      :     0.014851
      py      :     0.997157
      dz2     :     0.004068  d :     0.017706
      dxz     :     0.002770
      dyz     :     0.004105
      dx2y2   :     0.003994
      dxy     :     0.002770
      f0      :     0.000182  f :     0.001087
      f+1     :     0.000135
      f-1     :     0.000217
      f+2     :     0.000154
      f-2     :     0.000160
      f+3     :     0.000119
      f-3     :     0.000119

SPIN
  0 C s       :     0.009763  s :     0.009763
      pz      :     0.990141  p :     1.978609
      px      :    -0.001671
      py      :     0.990139
      dz2     :     0.002801  d :     0.011097
      dxz     :     0.001676
      dyz     :     0.003456
      dx2y2   :     0.001490
      dxy     :     0.001676
      f0      :     0.000093  f :     0.000530
      f+1     :     0.000062
      f-1     :     0.000115
      f+2     :     0.000076
      f-2     :     0.000076
      f+3     :     0.000053
      f-3     :     0.000055


                     *******************************
                     * LOEWDIN POPULATION ANALYSIS *
                     *******************************

-----------------------------------------
LOEWDIN ATOMIC CHARGES AND SPIN DENSITIES
-----------------------------------------
   0 C :    0.000000    2.000000

--------------------------------------------------
LOEWDIN REDUCED ORBITAL CHARGES AND SPIN DENSITIES
--------------------------------------------------
CHARGE
  0 C s       :     3.972041  s :     3.972041
      pz      :     0.997158  p :     2.009166
      px      :     0.014851
      py      :     0.997157
      dz2     :     0.004068  d :     0.017706
      dxz     :     0.002770
      dyz     :     0.004105
      dx2y2   :     0.003994
      dxy     :     0.002770
      f0      :     0.000182  f :     0.001087
      f+1     :     0.000135
      f-1     :     0.000217
      f+2     :     0.000154
      f-2     :     0.000160
      f+3     :     0.000119
      f-3     :     0.000119

SPIN
  0 C s       :     0.009763  s :     0.009763
      pz      :     0.990141  p :     1.978609
      px      :    -0.001671
      py      :     0.990139
      dz2     :     0.002801  d :     0.011097
      dxz     :     0.001676
      dyz     :     0.003456
      dx2y2   :     0.001490
      dxy     :     0.001676
      f0      :     0.000093  f :     0.000530
      f+1     :     0.000062
      f-1     :     0.000115
      f+2     :     0.000076
      f-2     :     0.000076
      f+3     :     0.000053
      f-3     :     0.000055


                      *****************************
                      * MAYER POPULATION ANALYSIS *
                      *****************************

  NA   - Mulliken gross atomic population
  ZA   - Total nuclear charge
  QA   - Mulliken gross atomic charge
  VA   - Mayer's total valence
  BVA  - Mayer's bonded valence
  FA   - Mayer's free valence

  ATOM       NA         ZA         QA         VA         BVA        FA
  0 C      6.0000     6.0000     0.0000     2.1677     0.0000     2.1677




                *******************************************
                * RELAXED MP2 DENSITY POPULATION ANALYSIS *
                *******************************************

------------------------------------------------------------------------------
                           ORCA POPULATION ANALYSIS
------------------------------------------------------------------------------
Input electron density              ... c.pmp2re
Input spin density                  ... c.rmp2re
BaseName (.gbw .S,...)              ... c

                    ********************************
                    * MULLIKEN POPULATION ANALYSIS *
                    ********************************

------------------------------------------
MULLIKEN ATOMIC CHARGES AND SPIN DENSITIES
------------------------------------------
   0 C :    0.000000    2.000000
Sum of atomic charges       :    0.0000000
Sum of atomic spin densities:    2.0000000

---------------------------------------------------
MULLIKEN REDUCED ORBITAL CHARGES AND SPIN DENSITIES
---------------------------------------------------
CHARGE
  0 C s       :     3.973013  s :     3.973013
      pz      :     0.997161  p :     2.009172
      px      :     0.014851
      py      :     0.997160
      dz2     :     0.003825  d :     0.016734
      dxz     :     0.002770
      dyz     :     0.004105
      dx2y2   :     0.003264
      dxy     :     0.002770
      f0      :     0.000181  f :     0.001081
      f+1     :     0.000135
      f-1     :     0.000217
      f+2     :     0.000153
      f-2     :     0.000160
      f+3     :     0.000119
      f-3     :     0.000117

SPIN
  0 C s       :     0.010513  s :     0.010513
      pz      :     0.990143  p :     1.978614
      px      :    -0.001671
      py      :     0.990142
      dz2     :     0.002613  d :     0.010348
      dxz     :     0.001676
      dyz     :     0.003456
      dx2y2   :     0.000928
      dxy     :     0.001676
      f0      :     0.000092  f :     0.000525
      f+1     :     0.000062
      f-1     :     0.000115
      f+2     :     0.000075
      f-2     :     0.000076
      f+3     :     0.000053
      f-3     :     0.000052


                     *******************************
                     * LOEWDIN POPULATION ANALYSIS *
                     *******************************

-----------------------------------------
LOEWDIN ATOMIC CHARGES AND SPIN DENSITIES
-----------------------------------------
   0 C :    0.000000    2.000000

--------------------------------------------------
LOEWDIN REDUCED ORBITAL CHARGES AND SPIN DENSITIES
--------------------------------------------------
CHARGE
  0 C s       :     3.973013  s :     3.973013
      pz      :     0.997161  p :     2.009172
      px      :     0.014851
      py      :     0.997160
      dz2     :     0.003825  d :     0.016734
      dxz     :     0.002770
      dyz     :     0.004105
      dx2y2   :     0.003264
      dxy     :     0.002770
      f0      :     0.000181  f :     0.001081
      f+1     :     0.000135
      f-1     :     0.000217
      f+2     :     0.000153
      f-2     :     0.000160
      f+3     :     0.000119
      f-3     :     0.000117

SPIN
  0 C s       :     0.010513  s :     0.010513
      pz      :     0.990143  p :     1.978614
      px      :    -0.001671
      py      :     0.990142
      dz2     :     0.002613  d :     0.010348
      dxz     :     0.001676
      dyz     :     0.003456
      dx2y2   :     0.000928
      dxy     :     0.001676
      f0      :     0.000092  f :     0.000525
      f+1     :     0.000062
      f-1     :     0.000115
      f+2     :     0.000075
      f-2     :     0.000076
      f+3     :     0.000053
      f-3     :     0.000052


                      *****************************
                      * MAYER POPULATION ANALYSIS *
                      *****************************

  NA   - Mulliken gross atomic population
  ZA   - Total nuclear charge
  QA   - Mulliken gross atomic charge
  VA   - Mayer's total valence
  BVA  - Mayer's bonded valence
  FA   - Mayer's free valence

  ATOM       NA         ZA         QA         VA         BVA        FA
  0 C      6.0000     6.0000     0.0000     2.1604     0.0000     2.1604




-------
TIMINGS
-------

Total time                :    1.285 sec
Integral trafo            :    0.285 sec ( 22.2%)
FC preparation            :    0.000 sec (  0.0%)
I/O of integrals          :    0.000 sec (  0.0%)
K(i,j) Operators          :    0.000 sec (  0.0%)
T(i,j) pair energies      :    0.000 sec (  0.0%)
V-calculation             :    0.006 sec (  0.5%)
V**(-1/2)                 :    0.000 sec (  0.0%)
Gamma(ia|P)               :    0.000 sec (  0.0%)
Gamma-Trafo               :    0.000 sec (  0.0%)
D(virtual)                :    0.000 sec (  0.0%)
D(internal)               :    0.000 sec (  0.0%)
W(virtual)                :    0.000 sec (  0.0%)
W(internal)               :    0.000 sec (  0.0%)
L(virtual)                :    0.004 sec (  0.3%)
L(internal)               :    0.000 sec (  0.0%)
G(D)                      :    0.205 sec ( 16.0%)
G(Z)                      :    0.000 sec (  0.0%)
Z-Vector Solution         :    0.761 sec ( 59.2%)
3-Index Derivative        :    0.000 sec (  0.0%)
2-Index Derivative        :    0.000 sec (  0.0%)
Separable Gradient (RIJ)  :    0.000 sec (  0.0%)
Separable Gradient (X)    :    0.000 sec (  0.0%)


---------------------------------------
MP2 TOTAL ENERGY:      -37.758577946 Eh
---------------------------------------

-------------------------   --------------------
FINAL SINGLE POINT ENERGY       -37.758577946385
-------------------------   --------------------


                            ***************************************
                            *     ORCA property calculations      *
                            ***************************************

                                    ---------------------
                                    Active property flags
                                    ---------------------
   (+) Dipole Moment


------------------------------------------------------------------------------
                       ORCA ELECTRIC PROPERTIES CALCULATION
------------------------------------------------------------------------------

Dipole Moment Calculation                       ... on
Quadrupole Moment Calculation                   ... off
Polarizability Calculation                      ... off
GBWName                                         ... c.gbw
Electron density file                           ... c.scfp.tmp

-------------
DIPOLE MOMENT
-------------
                                X             Y             Z
Electronic contribution:      0.00000      -0.00000       0.00000
Nuclear contribution   :      0.00000       0.00000       0.00000
                        -----------------------------------------
Total Dipole Moment    :      0.00000      -0.00000       0.00000
                        -----------------------------------------
Magnitude (a.u.)       :      0.00000
Magnitude (Debye)      :      0.00000


                         *** MP2 UNRELAXED DENSITY ***

------------------------------------------------------------------------------
                       ORCA ELECTRIC PROPERTIES CALCULATION
------------------------------------------------------------------------------

Dipole Moment Calculation                       ... on
Quadrupole Moment Calculation                   ... off
Polarizability Calculation                      ... off
GBWName                                         ... c.gbw
Electron density file                           ... c.pmp2ur

-------------
DIPOLE MOMENT
-------------
                                X             Y             Z
Electronic contribution:      0.00000      -0.00000       0.00000
Nuclear contribution   :      0.00000       0.00000       0.00000
                        -----------------------------------------
Total Dipole Moment    :      0.00000      -0.00000       0.00000
                        -----------------------------------------
Magnitude (a.u.)       :      0.00000
Magnitude (Debye)      :      0.00000


                           *** MP2 RELAXED DENSITY ***

------------------------------------------------------------------------------
                       ORCA ELECTRIC PROPERTIES CALCULATION
------------------------------------------------------------------------------

Dipole Moment Calculation                       ... on
Quadrupole Moment Calculation                   ... off
Polarizability Calculation                      ... off
GBWName                                         ... c.gbw
Electron density file                           ... c.pmp2re

-------------
DIPOLE MOMENT
-------------
                                X             Y             Z
Electronic contribution:      0.00000      -0.00000       0.00000
Nuclear contribution   :      0.00000       0.00000       0.00000
                        -----------------------------------------
Total Dipole Moment    :      0.00000      -0.00000       0.00000
                        -----------------------------------------
Magnitude (a.u.)       :      0.00000
Magnitude (Debye)      :      0.00000


Timings for individual modules:

Sum of individual times         ...        2.837 sec (=   0.047 min)
GTO integral calculation        ...        0.117 sec (=   0.002 min)   4.1 %
SCF iterations                  ...        1.326 sec (=   0.022 min)  46.7 %
MP2 module                      ...        1.395 sec (=   0.023 min)  49.2 %
                             ****ORCA TERMINATED NORMALLY****
TOTAL RUN TIME: 0 days 0 hours 0 minutes 3 seconds 216 msec
