
                                 *****************
                                 * O   R   C   A *
                                 *****************

           --- An Ab Initio, DFT and Semiempirical electronic structure package ---

                  #######################################################
                  #                        -***-                        #
                  #  Department of molecular theory and spectroscopy    #
                  #              Directorship: Frank Neese              #
                  # Max Planck Institute for Chemical Energy Conversion #
                  #                  D-45470 Muelheim/Ruhr              #
                  #                       Germany                       #
                  #                                                     #
                  #                  All rights reserved                #
                  #                        -***-                        #
                  #######################################################


                         Program Version 3.0.3 - RELEASE   -


 With contributions from (in alphabetic order):
   Ute Becker             : Parallelization
   Dmytro Bykov           : SCF Hessian
   Dmitry Ganyushin       : Spin-Orbit,Spin-Spin,Magnetic field MRCI
   Andreas Hansen         : Spin unrestricted coupled pair/coupled cluster methods
   Dimitrios Liakos       : Extrapolation schemes; parallel MDCI
   Robert Izsak           : Overlap fitted RIJCOSX, COSX-SCS-MP3
   Christian Kollmar      : KDIIS, OOCD, Brueckner-CCSD(T), CCSD density
   Simone Kossmann        : Meta GGA functionals, TD-DFT gradient, OOMP2, MP2 Hessian
   Taras Petrenko         : DFT Hessian,TD-DFT gradient, ASA and ECA modules, normal mode analysis, Resonance Raman, ABS, FL, XAS/XES, NRVS
   Christoph Reimann      : Effective Core Potentials
   Michael Roemelt        : Restricted open shell CIS
   Christoph Riplinger    : Improved optimizer, TS searches, QM/MM, DLPNO-CCSD
   Barbara Sandhoefer     : DKH picture change effects
   Igor Schapiro          : Molecular dynamics
   Kantharuban Sivalingam : CASSCF convergence, NEVPT2
   Boris Wezisla          : Elementary symmetry handling
   Frank Wennmohs         : Technical directorship


 We gratefully acknowledge several colleagues who have allowed us to
 interface, adapt or use parts of their codes:
   Stefan Grimme, W. Hujo, H. Kruse, T. Risthaus : VdW corrections, initial TS optimization,
                                                   DFT functionals, gCP
   Ed Valeev                                     : LibInt (2-el integral package), F12 methods
   Garnet Chan, S. Sharma, R. Olivares           : DMRG
   Ulf Ekstrom                                   : XCFun DFT Library
   Mihaly Kallay                                 : mrcc  (arbitrary order and MRCC methods)
   Andreas Klamt, Michael Diedenhofen            : otool_cosmo (COSMO solvation model)
   Frank Weinhold                                : gennbo (NPA and NBO analysis)
   Christopher J. Cramer and Donald G. Truhlar   : smd solvation model


 Your calculation uses the libint2 library for the computation of 2-el integrals
 For citations please refer to: http://libint.valeyev.net

 This ORCA versions uses:
   CBLAS   interface :  Fast vector & matrix operations
   LAPACKE interface :  Fast linear algebra routines
   SCALAPACK package :  Parallel linear algebra routines


Your calculation utilizes the basis: Ahlrichs-TZV
Cite in your paper:
H - Kr: A. Schaefer, H. Horn and R. Ahlrichs, J. Chem. Phys. 97, 2571 (1992).

The def2-TZV basis will be loaded
Cite in your paper:
 	F. Weigend, R. Ahlrichs, Phys. Chem. Chem. Phys. 2005, 7, 3297.

================================================================================
                                        WARNINGS
                       Please study these warnings very carefully!
================================================================================
Now building the actual basis set

WARNING: your system is open-shell and RHF/RKS was chosen
  ===> : WILL SWITCH to UHF/UKS



INFO   : the flag for use of LIBINT has been found!

================================================================================
                                       INPUT FILE
================================================================================
NAME = h.inp
|  1> ! RI-MP2 RIJK def2-TZVP def2-TZVP/C def2-TZVP/JK TIGHTSCF
|  2> % maxcore 2000
|  3> % mp2 density relaxed end
|  4> *xyz 0 2
|  5>  H       0.0000000     0.0000000     0.000000000
|  6> *
|  7> 
|  8>                          ****END OF INPUT****
================================================================================

                       ****************************
                       * Single Point Calculation *
                       ****************************

---------------------------------
CARTESIAN COORDINATES (ANGSTROEM)
---------------------------------
  H      0.000000    0.000000    0.000000

----------------------------
CARTESIAN COORDINATES (A.U.)
----------------------------
  NO LB      ZA    FRAG    MASS        X           Y           Z
   0 H     1.0000    0     1.008          0.000000000000000          0.000000000000000          0.000000000000000

--------------------------------
INTERNAL COORDINATES (ANGSTROEM)
--------------------------------
 H      0   0   0   0.000000     0.000     0.000

---------------------------
INTERNAL COORDINATES (A.U.)
---------------------------
 H      0   0   0   0.000000     0.000     0.000

---------------------
BASIS SET INFORMATION
---------------------
There are 1 groups of distinct atoms

 Group   1 Type H   : 5s1p contracted to 3s1p pattern {311/1}

Atom   0H    basis set group =>   1
-------------------------------
AUXILIARY BASIS SET INFORMATION
-------------------------------
There are 1 groups of distinct atoms

 Group   1 Type H   : 4s2p2d contracted to 2s2p2d pattern {31/11/11}

Atom   0H    basis set group =>   1
------------------------------------------------------------------------------
                           ORCA GTO INTEGRAL CALCULATION
                           -- RI-GTO INTEGRALS CHOSEN --
------------------------------------------------------------------------------

                         BASIS SET STATISTICS AND STARTUP INFO

Gaussian basis set:
 # of primitive gaussian shells          ...    6
 # of primitive gaussian functions       ...    8
 # of contracted shells                  ...    4
 # of contracted basis functions         ...    6
 Highest angular momentum                ...    1
 Maximum contraction depth               ...    3
Auxiliary gaussian basis set:
 # of primitive gaussian shells          ...    8
 # of primitive gaussian functions       ...   20
 # of contracted shells                  ...    6
 # of contracted aux-basis functions     ...   18
 Highest angular momentum                ...    2
 Maximum contraction depth               ...    3
Ratio of auxiliary to basis functions    ...  3.00
Integral package used                  ... LIBINT
 One Electron integrals                  ... done
 Ordering auxiliary basis shells         ... done
 Integral threshhold             Thresh  ...  2.500e-11
 Primitive cut-off               TCut    ...  2.500e-12
 Pre-screening matrix                    ... done
 Shell pair data                         ... 
 Ordering of the shell pairs             ... done (   0.000 sec) 10 of 10 pairs
 Determination of significant pairs      ... done (   0.000 sec)
 Creation of shell pair data             ... done (   0.000 sec)
 Storage of shell pair data              ... done (   0.000 sec)
 Shell pair data done in (   0.000 sec)
 Computing two index integrals           ... done
 Cholesky decomposition of the V-matrix  ... done


Timings:
 Total evaluation time                   ...   0.092 sec (  0.002 min)
 One electron matrix time                ...   0.002 sec (  0.000 min) =  2.6%
 Schwartz matrix evaluation time         ...   0.077 sec (  0.001 min) = 83.6%
 Two index repulsion integral time       ...   0.000 sec (  0.000 min) =  0.0%
 Cholesky decomposition of V             ...   0.000 sec (  0.000 min) =  0.1%
 Three index repulsion integral time     ...   0.000 sec (  0.000 min) =  0.0%

-------------------------------------------------------------------------------
                                 ORCA SCF
-------------------------------------------------------------------------------

------------
SCF SETTINGS
------------
Hamiltonian:
 Ab initio Hamiltonian  Method          .... Hartree-Fock(GTOs)
 RI-approximation to the Coulomb term is turned on
   Number of auxiliary basis functions  .... 18
   RI-JK (J+K treated both via RI)      .... on


General Settings:
 Integral files         IntName         .... h
 Hartree-Fock type      HFTyp           .... UHF
 Total Charge           Charge          ....    0
 Multiplicity           Mult            ....    2
 Number of Electrons    NEL             ....    1
 Basis Dimension        Dim             ....    6
 Nuclear Repulsion      ENuc            ....      0.0000000000 Eh

Convergence Acceleration:
 DIIS                   CNVDIIS         .... on
   Start iteration      DIISMaxIt       ....    12
   Startup error        DIISStart       ....  0.200000
   # of expansion vecs  DIISMaxEq       ....     5
   Bias factor          DIISBfac        ....   1.050
   Max. coefficient     DIISMaxC        ....  10.000
 Newton-Raphson         CNVNR           .... off
 SOSCF                  CNVSOSCF        .... off
 Level Shifting         CNVShift        .... on
   Level shift para.    LevelShift      ....    0.2500
   Turn off err/grad.   ShiftErr        ....    0.0010
 Zerner damping         CNVZerner       .... off
 Static damping         CNVDamp         .... on
   Fraction old density DampFac         ....    0.7000
   Max. Damping (<1)    DampMax         ....    0.9800
   Min. Damping (>=0)   DampMin         ....    0.0000
   Turn off err/grad.   DampErr         ....    0.1000
 Fernandez-Rico         CNVRico         .... off

SCF Procedure:
 Maximum # iterations   MaxIter         ....   125
 SCF integral mode      SCFMode         .... Direct
   Integral package                     .... LIBINT
 Reset frequeny         DirectResetFreq ....    20
 Integral Threshold     Thresh          ....  2.500e-11 Eh
 Primitive CutOff       TCut            ....  2.500e-12 Eh

Convergence Tolerance:
 Convergence Check Mode ConvCheckMode   .... Total+1el-Energy
 Energy Change          TolE            ....  1.000e-08 Eh
 1-El. energy change                    ....  1.000e-05 Eh
 DIIS Error             TolErr          ....  5.000e-07


Diagonalization of the overlap matrix:
Smallest eigenvalue                        ... 1.094e-01
Time for diagonalization                   ...    0.000 sec
Threshold for overlap eigenvalues          ... 1.000e-08
Number of eigenvalues below threshold      ... 0
Time for construction of square roots      ...    0.000 sec
Total time needed                          ...    0.000 sec

-------------------
DFT GRID GENERATION
-------------------

General Integration Accuracy     IntAcc      ...  4.340
Radial Grid Type                 RadialGrid  ... Gauss-Chebyshev
Angular Grid (max. acc.)         AngularGrid ... Lebedev-110
Angular grid pruning method      GridPruning ... 3 (G Style)
Weight generation scheme         WeightScheme... Becke
Basis function cutoff            BFCut       ...    1.0000e-11
Integration weight cutoff        WCut        ...    1.0000e-14
Grids for H and He will be reduced by one unit

# of grid points (after initial pruning)     ...    794 (   0.0 sec)
# of grid points (after weights+screening)   ...    794 (   0.0 sec)
Grid point division into batches done        ...    0.0 sec
Reduced shell lists constructed in    0.0 sec

Total number of grid points                  ...      794
Total number of batches                      ...       13
Average number of points per batch           ...       61
Average number of grid points per atom       ...      794
Average number of shells per batch           ...     3.71 (92.86%)
Average number of basis functions per batch  ...     5.57 (92.86%)
Average number of large shells per batch     ...     3.71 (100.00%)
Average number of large basis fcns per batch ...     5.57 (100.00%)
Average number of aux-shells per batch       ...     3.71 (61.90%)
Average number of aux functions per batch    ...     5.57 (  inf%)
Maximum spatial batch extension              ...  17.62, 21.59, 21.59 au
Average spatial batch extension              ...   6.10,  8.93,  9.49 au

Time for grid setup =    0.002 sec

------------------------------
INITIAL GUESS: MODEL POTENTIAL
------------------------------
Loading Hartree-Fock densities                     ... done
Calculating cut-offs                               ... done
Setting up the integral package                    ... done
Initializing the effective Hamiltonian             ... done
Starting the Coulomb interaction                   ... done (   0.0 sec)
Reading the grid                                   ... done
Mapping shells                                     ... done
Starting the XC term evaluation                    ... done (   0.0 sec)
Transforming the Hamiltonian                       ... done (   0.0 sec)
Diagonalizing the Hamiltonian                      ... done (   0.0 sec)
Back transforming the eigenvectors                 ... done (   0.0 sec)
Now organizing SCF variables                       ... done
                      ------------------
                      INITIAL GUESS DONE (   0.1 sec)
                      ------------------
--------------
SCF ITERATIONS
--------------
ITER       Energy         Delta-E        Max-DP      RMS-DP      [F,P]     Damp
  0     -0.4951036554   0.000000000000 0.01888761  0.00257713  0.0436792 0.7000
  1     -0.5009895740  -0.005885918612 0.02408599  0.00338573  0.0541642 0.7000
                               ***Turning on DIIS***
  2     -0.5036494415  -0.002659867543 0.07605523  0.01096096  0.0513016 0.0000
  3     -0.4999317909   0.003717650605 0.00527619  0.00071302  0.0024008 0.0000
  4     -0.4997434278   0.000188363161 0.00279274  0.00038748  0.0006385 0.0000
  5     -0.4997775361  -0.000034108358 0.00030329  0.00004877  0.0002133 0.0000
  6     -0.4997923977  -0.000014861529 0.00009451  0.00001518  0.0000994 0.0000
  7     -0.4998098183  -0.000017420589 0.00010548  0.00001690  0.0000535 0.0000
  8     -0.4998098324  -0.000000014171 0.00000297  0.00000048  0.0000011 0.0000
                 **** Energy Check signals convergence ****

               *****************************************************
               *                     SUCCESS                       *
               *           SCF CONVERGED AFTER   9 CYCLES          *
               *****************************************************


----------------
TOTAL SCF ENERGY
----------------

Total Energy       :           -0.49980983 Eh             -13.60052 eV

Components:
Nuclear Repulsion  :            0.00000000 Eh               0.00000 eV
Electronic Energy  :           -0.49980983 Eh             -13.60052 eV

One Electron Energy:           -0.49980983 Eh             -13.60052 eV
Two Electron Energy:           -0.00000000 Eh              -0.00000 eV

Virial components:
Potential Energy   :           -0.99961966 Eh             -27.20103 eV
Kinetic Energy     :            0.49980983 Eh              13.60052 eV
Virial Ratio       :            2.00000000


---------------
SCF CONVERGENCE
---------------

  Last Energy change         ...    1.9714e-10  Tolerance :   1.0000e-08
  Last MAX-Density change    ...    2.0904e-08  Tolerance :   1.0000e-07
  Last RMS-Density change    ...    3.3621e-09  Tolerance :   5.0000e-09
  Last DIIS Error            ...    8.0578e-09  Tolerance :   5.0000e-07

             **** THE GBW FILE WAS UPDATED (h.gbw) ****
             **** DENSITY FILE WAS UPDATED (h.scfp.tmp) ****
             **** ENERGY FILE WAS UPDATED (h.en.tmp) ****
----------------------
UHF SPIN CONTAMINATION
----------------------

Expectation value of <S**2>     :     0.750000
Ideal value S*(S+1) for S=0.5   :     0.750000
Deviation                       :     0.000000

----------------
ORBITAL ENERGIES
----------------
                 SPIN UP ORBITALS
  NO   OCC          E(Eh)            E(eV) 
   0   1.0000      -0.499810       -13.6005 
   1   0.0000       0.354348         9.6423 
   2   0.0000       1.595771        43.4231 
   3   0.0000       1.595771        43.4231 
   4   0.0000       1.595771        43.4231 
   5   0.0000       2.519857        68.5688 

                 SPIN DOWN ORBITALS
  NO   OCC          E(Eh)            E(eV) 
   0   0.0000       0.056844         1.5468 
   1   0.0000       0.495244        13.4763 
   2   0.0000       1.726409        46.9780 
   3   0.0000       1.726409        46.9780 
   4   0.0000       1.726409        46.9780 
   5   0.0000       2.615743        71.1780 

                    ********************************
                    * MULLIKEN POPULATION ANALYSIS *
                    ********************************

--------------------------------------------
MULLIKEN ATOMIC CHARGES AND SPIN POPULATIONS
--------------------------------------------
   0 H :   -0.000000    1.000000
Sum of atomic charges         :   -0.0000000
Sum of atomic spin populations:    1.0000000

-----------------------------------------------------
MULLIKEN REDUCED ORBITAL CHARGES AND SPIN POPULATIONS
-----------------------------------------------------
CHARGE
  0 H s       :     1.000000  s :     1.000000
      pz      :     0.000000  p :     0.000000
      px      :     0.000000
      py      :     0.000000

SPIN
  0 H s       :     1.000000  s :     1.000000
      pz      :     0.000000  p :     0.000000
      px      :     0.000000
      py      :     0.000000


                     *******************************
                     * LOEWDIN POPULATION ANALYSIS *
                     *******************************

-------------------------------------------
LOEWDIN ATOMIC CHARGES AND SPIN POPULATIONS
-------------------------------------------
   0 H :   -0.000000    1.000000

----------------------------------------------------
LOEWDIN REDUCED ORBITAL CHARGES AND SPIN POPULATIONS
----------------------------------------------------
CHARGE
  0 H s       :     1.000000  s :     1.000000
      pz      :     0.000000  p :     0.000000
      px      :     0.000000
      py      :     0.000000

SPIN
  0 H s       :     1.000000  s :     1.000000
      pz      :     0.000000  p :     0.000000
      px      :     0.000000
      py      :     0.000000


                      *****************************
                      * MAYER POPULATION ANALYSIS *
                      *****************************

  NA   - Mulliken gross atomic population
  ZA   - Total nuclear charge
  QA   - Mulliken gross atomic charge
  VA   - Mayer's total valence
  BVA  - Mayer's bonded valence
  FA   - Mayer's free valence

  ATOM       NA         ZA         QA         VA         BVA        FA
  0 H      1.0000     1.0000    -0.0000     1.0000     0.0000     1.0000

  Mayer bond orders larger than 0.1


-----------------------------------------------
ATOM BASIS FOR ELEMENT H 
-----------------------------------------------
  NSH[1]   = 3;
  res=GAUSS_InitGTOSTO(BG,BS,1,NSH[1]);
  // Basis function for L=s
  (*BG)[ 1][ 0].l    = ((*BS)[ 1][ 0].l=0);
  (*BG)[ 1][ 0].ng   = 5;
  (*BG)[ 1][ 0].a[ 0]=     34.06134100; (*BG)[ 1][ 0].d[ 0]= 0.060544919929;
  (*BG)[ 1][ 0].a[ 1]=      5.12357460; (*BG)[ 1][ 0].d[ 1]= 0.109271256166;
  (*BG)[ 1][ 0].a[ 2]=      1.16466260; (*BG)[ 1][ 0].d[ 2]= 0.161320892429;
  (*BG)[ 1][ 0].a[ 3]=      0.32723041; (*BG)[ 1][ 0].d[ 3]= 0.155115009173;
  (*BG)[ 1][ 0].a[ 4]=      0.10307241; (*BG)[ 1][ 0].d[ 4]= 0.049973892129;
  // Basis function for L=s
  (*BG)[ 1][ 1].l    = ((*BS)[ 1][ 1].l=0);
  (*BG)[ 1][ 1].ng   = 5;
  (*BG)[ 1][ 1].a[ 0]=     34.06134100; (*BG)[ 1][ 1].d[ 0]= 0.025752852384;
  (*BG)[ 1][ 1].a[ 1]=      5.12357460; (*BG)[ 1][ 1].d[ 1]= 0.046478656396;
  (*BG)[ 1][ 1].a[ 2]=      1.16466260; (*BG)[ 1][ 1].d[ 2]= 0.068618029954;
  (*BG)[ 1][ 1].a[ 3]=      0.32723041; (*BG)[ 1][ 1].d[ 3]= 0.404596124461;
  (*BG)[ 1][ 1].a[ 4]=      0.10307241; (*BG)[ 1][ 1].d[ 4]=-0.201419050476;
  // Basis function for L=p
  (*BG)[ 1][ 2].l    = ((*BS)[ 1][ 2].l=1);
  (*BG)[ 1][ 2].ng   = 1;
  (*BG)[ 1][ 2].a[ 0]=      0.80000000; (*BG)[ 1][ 2].d[ 0]= 1.078456349246;
 newgto H 
 S 5
    1         34.061341000000         0.006025197820
    2          5.123574600000         0.045021094150
    3          1.164662600000         0.201897260675
    4          0.327230410000         0.503041121510
    5          0.103072410000         0.385457286508
 S 5
    1         34.061341000000         0.002562824928
    2          5.123574600000         0.019149774964
    3          1.164662600000         0.085877235564
    4          0.327230410000         1.312113439523
    5          0.103072410000        -1.553580026298
 P 1
    1          0.800000000000         1.000000000000
 end
-------------------------------------------
RADIAL EXPECTATION VALUES <R**-3> TO <R**3>
-------------------------------------------
   0 :     0.000000     1.986730     0.999620     1.499034     2.990527     7.426502
   1 :     0.000000     0.904379     0.569303     2.928021    10.350695    39.874136
   2 :     1.522453     1.066667     0.951533     1.189416     1.562500     2.230155
   3 :     1.522453     1.066667     0.951533     1.189416     1.562500     2.230155
   4 :     1.522453     1.066667     0.951533     1.189416     1.562500     2.230155
   5 :     0.000000     9.088339     1.919149     1.266956     2.961697     9.577062
-------
TIMINGS
-------

Total SCF time: 0 days 0 hours 0 min 0 sec 

Total time                  ....       0.916 sec
Sum of individual times     ....       1.011 sec  (110.4%)

Fock matrix formation       ....       0.911 sec  ( 99.5%)
Diagonalization             ....       0.001 sec  (  0.1%)
Density matrix formation    ....       0.000 sec  (  0.0%)
Population analysis         ....       0.000 sec  (  0.0%)
Initial guess               ....       0.095 sec  ( 10.3%)
Orbital Transformation      ....       0.000 sec  (  0.0%)
Orbital Orthonormalization  ....       0.000 sec  (  0.0%)
DIIS solution               ....       0.001 sec  (  0.1%)

   <<< Auxbasis replaced with h.AUXC.tmp (Dim=15) >>> 


------------------------------------------------------------------------------
                              ORCA MP2 CALCULATION
------------------------------------------------------------------------------

Freezing NCore=0 chemical core electrons
Warning: Single electron - no MP2 correction

---------------------------------------
MP2 TOTAL ENERGY:       -0.499809832 Eh
---------------------------------------

-------------------------   --------------------
FINAL SINGLE POINT ENERGY        -0.499809832232
-------------------------   --------------------


                            ***************************************
                            *     ORCA property calculations      *
                            ***************************************

                                    ---------------------
                                    Active property flags
                                    ---------------------
   (+) Dipole Moment


------------------------------------------------------------------------------
                       ORCA ELECTRIC PROPERTIES CALCULATION
------------------------------------------------------------------------------

Dipole Moment Calculation                       ... on
Quadrupole Moment Calculation                   ... off
Polarizability Calculation                      ... off
GBWName                                         ... h.gbw
Electron density file                           ... h.scfp.tmp

-------------
DIPOLE MOMENT
-------------
                                X             Y             Z
Electronic contribution:      0.00000      -0.00000       0.00000
Nuclear contribution   :      0.00000       0.00000       0.00000
                        -----------------------------------------
Total Dipole Moment    :      0.00000      -0.00000       0.00000
                        -----------------------------------------
Magnitude (a.u.)       :      0.00000
Magnitude (Debye)      :      0.00000


Timings for individual modules:

Sum of individual times         ...        1.138 sec (=   0.019 min)
GTO integral calculation        ...        0.106 sec (=   0.002 min)   9.3 %
SCF iterations                  ...        1.022 sec (=   0.017 min)  89.8 %
MP2 module                      ...        0.010 sec (=   0.000 min)   0.8 %
                             ****ORCA TERMINATED NORMALLY****
TOTAL RUN TIME: 0 days 0 hours 0 minutes 1 seconds 253 msec
