
                                 *****************
                                 * O   R   C   A *
                                 *****************

           --- An Ab Initio, DFT and Semiempirical electronic structure package ---

                  #######################################################
                  #                        -***-                        #
                  #  Department of molecular theory and spectroscopy    #
                  #              Directorship: Frank Neese              #
                  # Max Planck Institute for Chemical Energy Conversion #
                  #                  D-45470 Muelheim/Ruhr              #
                  #                       Germany                       #
                  #                                                     #
                  #                  All rights reserved                #
                  #                        -***-                        #
                  #######################################################


                         Program Version 3.0.3 - RELEASE   -


 With contributions from (in alphabetic order):
   Ute Becker             : Parallelization
   Dmytro Bykov           : SCF Hessian
   Dmitry Ganyushin       : Spin-Orbit,Spin-Spin,Magnetic field MRCI
   Andreas Hansen         : Spin unrestricted coupled pair/coupled cluster methods
   Dimitrios Liakos       : Extrapolation schemes; parallel MDCI
   Robert Izsak           : Overlap fitted RIJCOSX, COSX-SCS-MP3
   Christian Kollmar      : KDIIS, OOCD, Brueckner-CCSD(T), CCSD density
   Simone Kossmann        : Meta GGA functionals, TD-DFT gradient, OOMP2, MP2 Hessian
   Taras Petrenko         : DFT Hessian,TD-DFT gradient, ASA and ECA modules, normal mode analysis, Resonance Raman, ABS, FL, XAS/XES, NRVS
   Christoph Reimann      : Effective Core Potentials
   Michael Roemelt        : Restricted open shell CIS
   Christoph Riplinger    : Improved optimizer, TS searches, QM/MM, DLPNO-CCSD
   Barbara Sandhoefer     : DKH picture change effects
   Igor Schapiro          : Molecular dynamics
   Kantharuban Sivalingam : CASSCF convergence, NEVPT2
   Boris Wezisla          : Elementary symmetry handling
   Frank Wennmohs         : Technical directorship


 We gratefully acknowledge several colleagues who have allowed us to
 interface, adapt or use parts of their codes:
   Stefan Grimme, W. Hujo, H. Kruse, T. Risthaus : VdW corrections, initial TS optimization,
                                                   DFT functionals, gCP
   Ed Valeev                                     : LibInt (2-el integral package), F12 methods
   Garnet Chan, S. Sharma, R. Olivares           : DMRG
   Ulf Ekstrom                                   : XCFun DFT Library
   Mihaly Kallay                                 : mrcc  (arbitrary order and MRCC methods)
   Andreas Klamt, Michael Diedenhofen            : otool_cosmo (COSMO solvation model)
   Frank Weinhold                                : gennbo (NPA and NBO analysis)
   Christopher J. Cramer and Donald G. Truhlar   : smd solvation model


 Your calculation uses the libint2 library for the computation of 2-el integrals
 For citations please refer to: http://libint.valeyev.net

 This ORCA versions uses:
   CBLAS   interface :  Fast vector & matrix operations
   LAPACKE interface :  Fast linear algebra routines
   SCALAPACK package :  Parallel linear algebra routines


Your calculation utilizes the basis: Ahlrichs-TZV
Cite in your paper:
H - Kr: A. Schaefer, H. Horn and R. Ahlrichs, J. Chem. Phys. 97, 2571 (1992).

The def2-TZV basis will be loaded
Cite in your paper:
 	F. Weigend, R. Ahlrichs, Phys. Chem. Chem. Phys. 2005, 7, 3297.

================================================================================
                                        WARNINGS
                       Please study these warnings very carefully!
================================================================================
Now building the actual basis set

WARNING: your system is open-shell and RHF/RKS was chosen
  ===> : WILL SWITCH to UHF/UKS



INFO   : the flag for use of LIBINT has been found!

================================================================================
                                       INPUT FILE
================================================================================
NAME = n.inp
|  1> ! RI-MP2 RIJK def2-TZVP def2-TZVP/C def2-TZVP/JK TIGHTSCF
|  2> % maxcore 2000
|  3> % mp2 density relaxed end
|  4> *xyz 0 4
|  5>  N       0.0000000     0.0000000     0.000000000
|  6> *
|  7> 
|  8>                          ****END OF INPUT****
================================================================================

                       ****************************
                       * Single Point Calculation *
                       ****************************

---------------------------------
CARTESIAN COORDINATES (ANGSTROEM)
---------------------------------
  N      0.000000    0.000000    0.000000

----------------------------
CARTESIAN COORDINATES (A.U.)
----------------------------
  NO LB      ZA    FRAG    MASS        X           Y           Z
   0 N     7.0000    0    14.007          0.000000000000000          0.000000000000000          0.000000000000000

--------------------------------
INTERNAL COORDINATES (ANGSTROEM)
--------------------------------
 N      0   0   0   0.000000     0.000     0.000

---------------------------
INTERNAL COORDINATES (A.U.)
---------------------------
 N      0   0   0   0.000000     0.000     0.000

---------------------
BASIS SET INFORMATION
---------------------
There are 1 groups of distinct atoms

 Group   1 Type N   : 11s6p2d1f contracted to 5s3p2d1f pattern {62111/411/11/1}

Atom   0N    basis set group =>   1
-------------------------------
AUXILIARY BASIS SET INFORMATION
-------------------------------
There are 1 groups of distinct atoms

 Group   1 Type N   : 14s10p6d2f1g contracted to 10s8p4d2f1g pattern {5111111111/31111111/3111/11/1}

Atom   0N    basis set group =>   1
------------------------------------------------------------------------------
                           ORCA GTO INTEGRAL CALCULATION
                           -- RI-GTO INTEGRALS CHOSEN --
------------------------------------------------------------------------------

                         BASIS SET STATISTICS AND STARTUP INFO

Gaussian basis set:
 # of primitive gaussian shells          ...   20
 # of primitive gaussian functions       ...   46
 # of contracted shells                  ...   11
 # of contracted basis functions         ...   31
 Highest angular momentum                ...    3
 Maximum contraction depth               ...    6
Auxiliary gaussian basis set:
 # of primitive gaussian shells          ...   33
 # of primitive gaussian functions       ...   97
 # of contracted shells                  ...   25
 # of contracted aux-basis functions     ...   77
 Highest angular momentum                ...    4
 Maximum contraction depth               ...    5
Ratio of auxiliary to basis functions    ...  2.48
Integral package used                  ... LIBINT
 One Electron integrals                  ... done
 Ordering auxiliary basis shells         ... done
 Integral threshhold             Thresh  ...  2.500e-11
 Primitive cut-off               TCut    ...  2.500e-12
 Pre-screening matrix                    ... done
 Shell pair data                         ... 
 Ordering of the shell pairs             ... done (   0.000 sec) 66 of 66 pairs
 Determination of significant pairs      ... done (   0.000 sec)
 Creation of shell pair data             ... done (   0.000 sec)
 Storage of shell pair data              ... done (   0.000 sec)
 Shell pair data done in (   0.000 sec)
 Computing two index integrals           ... done
 Cholesky decomposition of the V-matrix  ... done


Timings:
 Total evaluation time                   ...   0.102 sec (  0.002 min)
 One electron matrix time                ...   0.003 sec (  0.000 min) =  2.6%
 Schwartz matrix evaluation time         ...   0.074 sec (  0.001 min) = 72.7%
 Two index repulsion integral time       ...   0.000 sec (  0.000 min) =  0.2%
 Cholesky decomposition of V             ...   0.000 sec (  0.000 min) =  0.2%
 Three index repulsion integral time     ...   0.000 sec (  0.000 min) =  0.0%

-------------------------------------------------------------------------------
                                 ORCA SCF
-------------------------------------------------------------------------------

------------
SCF SETTINGS
------------
Hamiltonian:
 Ab initio Hamiltonian  Method          .... Hartree-Fock(GTOs)
 RI-approximation to the Coulomb term is turned on
   Number of auxiliary basis functions  .... 77
   RI-JK (J+K treated both via RI)      .... on


General Settings:
 Integral files         IntName         .... n
 Hartree-Fock type      HFTyp           .... UHF
 Total Charge           Charge          ....    0
 Multiplicity           Mult            ....    4
 Number of Electrons    NEL             ....    7
 Basis Dimension        Dim             ....   31
 Nuclear Repulsion      ENuc            ....      0.0000000000 Eh

Convergence Acceleration:
 DIIS                   CNVDIIS         .... on
   Start iteration      DIISMaxIt       ....    12
   Startup error        DIISStart       ....  0.200000
   # of expansion vecs  DIISMaxEq       ....     5
   Bias factor          DIISBfac        ....   1.050
   Max. coefficient     DIISMaxC        ....  10.000
 Newton-Raphson         CNVNR           .... off
 SOSCF                  CNVSOSCF        .... off
 Level Shifting         CNVShift        .... on
   Level shift para.    LevelShift      ....    0.2500
   Turn off err/grad.   ShiftErr        ....    0.0010
 Zerner damping         CNVZerner       .... off
 Static damping         CNVDamp         .... on
   Fraction old density DampFac         ....    0.7000
   Max. Damping (<1)    DampMax         ....    0.9800
   Min. Damping (>=0)   DampMin         ....    0.0000
   Turn off err/grad.   DampErr         ....    0.1000
 Fernandez-Rico         CNVRico         .... off

SCF Procedure:
 Maximum # iterations   MaxIter         ....   125
 SCF integral mode      SCFMode         .... Direct
   Integral package                     .... LIBINT
 Reset frequeny         DirectResetFreq ....    20
 Integral Threshold     Thresh          ....  2.500e-11 Eh
 Primitive CutOff       TCut            ....  2.500e-12 Eh

Convergence Tolerance:
 Convergence Check Mode ConvCheckMode   .... Total+1el-Energy
 Energy Change          TolE            ....  1.000e-08 Eh
 1-El. energy change                    ....  1.000e-05 Eh
 DIIS Error             TolErr          ....  5.000e-07


Diagonalization of the overlap matrix:
Smallest eigenvalue                        ... 2.950e-02
Time for diagonalization                   ...    0.001 sec
Threshold for overlap eigenvalues          ... 1.000e-08
Number of eigenvalues below threshold      ... 0
Time for construction of square roots      ...    0.000 sec
Total time needed                          ...    0.001 sec

-------------------
DFT GRID GENERATION
-------------------

General Integration Accuracy     IntAcc      ...  4.340
Radial Grid Type                 RadialGrid  ... Gauss-Chebyshev
Angular Grid (max. acc.)         AngularGrid ... Lebedev-110
Angular grid pruning method      GridPruning ... 3 (G Style)
Weight generation scheme         WeightScheme... Becke
Basis function cutoff            BFCut       ...    1.0000e-11
Integration weight cutoff        WCut        ...    1.0000e-14
Grids for H and He will be reduced by one unit

# of grid points (after initial pruning)     ...   1702 (   0.0 sec)
# of grid points (after weights+screening)   ...   1702 (   0.0 sec)
Grid point division into batches done        ...    0.0 sec
Reduced shell lists constructed in    0.0 sec

Total number of grid points                  ...     1702
Total number of batches                      ...       27
Average number of points per batch           ...       63
Average number of grid points per atom       ...     1702
Average number of shells per batch           ...     9.82 (89.29%)
Average number of basis functions per batch  ...    28.82 (92.97%)
Average number of large shells per batch     ...     9.21 (93.82%)
Average number of large basis fcns per batch ...    27.21 (94.42%)
Average number of aux-shells per batch       ...     9.82 (39.29%)
Average number of aux functions per batch    ...    28.82 (  inf%)
Maximum spatial batch extension              ...  13.89, 25.65, 25.65 au
Average spatial batch extension              ...   6.82,  8.00,  8.99 au

Time for grid setup =    0.013 sec

------------------------------
INITIAL GUESS: MODEL POTENTIAL
------------------------------
Loading Hartree-Fock densities                     ... done
Calculating cut-offs                               ... done
Setting up the integral package                    ... done
Initializing the effective Hamiltonian             ... done
Starting the Coulomb interaction                   ... done (   0.0 sec)
Reading the grid                                   ... done
Mapping shells                                     ... done
Starting the XC term evaluation                    ... done (   0.0 sec)
Transforming the Hamiltonian                       ... done (   0.0 sec)
Diagonalizing the Hamiltonian                      ... done (   0.0 sec)
Back transforming the eigenvectors                 ... done (   0.0 sec)
Now organizing SCF variables                       ... done
                      ------------------
                      INITIAL GUESS DONE (   0.1 sec)
                      ------------------
--------------
SCF ITERATIONS
--------------
ITER       Energy         Delta-E        Max-DP      RMS-DP      [F,P]     Damp
  0    -54.3862010552   0.000000000000 0.00991610  0.00076640  0.2723060 0.7000
  1    -54.4224094354  -0.036208380182 0.01118246  0.00089133  0.2162748 0.7000
                               ***Turning on DIIS***
  2    -54.4285797683  -0.006170332881 0.00950086  0.00078644  0.1461791 0.7000
  3    -54.3468417388   0.081738029487 0.02759427  0.00225804  0.0955652 0.0000
  4    -54.4098646140  -0.063022875169 0.00564081  0.00035987  0.0130320 0.0000
  5    -54.4073405452   0.002524068729 0.00336718  0.00013534  0.0016259 0.0000
  6    -54.4044038345   0.002936710787 0.00092648  0.00005069  0.0005341 0.0000
  7    -54.4030840447   0.001319789746 0.00016766  0.00001075  0.0001207 0.0000
  8    -54.4028231530   0.000260891704 0.00008194  0.00000364  0.0000290 0.0000
  9    -54.4027474245   0.000075728522 0.00001584  0.00000066  0.0000047 0.0000
                            ***DIIS convergence achieved***

               *****************************************************
               *                     SUCCESS                       *
               *           SCF CONVERGED AFTER  10 CYCLES          *
               *****************************************************


----------------
TOTAL SCF ENERGY
----------------

Total Energy       :          -54.40274378 Eh           -1480.37392 eV

Components:
Nuclear Repulsion  :            0.00000000 Eh               0.00000 eV
Electronic Energy  :          -54.40274378 Eh           -1480.37392 eV

One Electron Energy:          -73.95571461 Eh           -2012.43730 eV
Two Electron Energy:           19.55297083 Eh             532.06339 eV

Virial components:
Potential Energy   :         -108.80868085 Eh           -2960.83473 eV
Kinetic Energy     :           54.40593706 Eh            1480.46081 eV
Virial Ratio       :            1.99994131


---------------
SCF CONVERGENCE
---------------

  Last Energy change         ...    3.6410e-06  Tolerance :   1.0000e-08
  Last MAX-Density change    ...    1.0079e-06  Tolerance :   1.0000e-07
  Last RMS-Density change    ...    5.7227e-08  Tolerance :   5.0000e-09
  Last DIIS Error            ...    4.2702e-07  Tolerance :   5.0000e-07

             **** THE GBW FILE WAS UPDATED (n.gbw) ****
             **** DENSITY FILE WAS UPDATED (n.scfp.tmp) ****
             **** ENERGY FILE WAS UPDATED (n.en.tmp) ****
----------------------
UHF SPIN CONTAMINATION
----------------------

Expectation value of <S**2>     :     3.757733
Ideal value S*(S+1) for S=1.5   :     3.750000
Deviation                       :     0.007733

----------------
ORBITAL ENERGIES
----------------
                 SPIN UP ORBITALS
  NO   OCC          E(Eh)            E(eV) 
   0   1.0000     -15.670565      -426.4178 
   1   1.0000      -1.162390       -31.6302 
   2   1.0000      -0.570595       -15.5267 
   3   1.0000      -0.570595       -15.5267 
   4   1.0000      -0.570595       -15.5267 
   5   0.0000       0.341233         9.2854 
   6   0.0000       0.446794        12.1579 
   7   0.0000       0.446794        12.1579 
   8   0.0000       0.446794        12.1579 
   9   0.0000       1.190214        32.3874 
  10   0.0000       1.190214        32.3874 
  11   0.0000       1.190214        32.3874 
  12   0.0000       1.190214        32.3874 
  13   0.0000       1.190214        32.3874 
  14   0.0000       2.072987        56.4089 
  15   0.0000       2.286767        62.2261 
  16   0.0000       2.286767        62.2261 
  17   0.0000       2.286767        62.2261 
  18   0.0000       4.185120       113.8829 
  19   0.0000       4.185120       113.8829 
  20   0.0000       4.185120       113.8829 
  21   0.0000       4.185120       113.8829 
  22   0.0000       4.185120       113.8829 
  23   0.0000       4.185120       113.8829 
  24   0.0000       4.185120       113.8829 
  25   0.0000       4.753364       129.3456 
  26   0.0000       4.753364       129.3456 
  27   0.0000       4.753364       129.3456 
  28   0.0000       4.753364       129.3456 
  29   0.0000       4.753364       129.3456 
  30   0.0000      32.292273       878.7174 

                 SPIN DOWN ORBITALS
  NO   OCC          E(Eh)            E(eV) 
   0   1.0000     -15.579638      -423.9435 
   1   1.0000      -0.725392       -19.7389 
   2   0.0000       0.129417         3.5216 
   3   0.0000       0.129417         3.5216 
   4   0.0000       0.129417         3.5216 
   5   0.0000       0.399244        10.8640 
   6   0.0000       0.603469        16.4212 
   7   0.0000       0.603469        16.4212 
   8   0.0000       0.603469        16.4212 
   9   0.0000       1.335041        36.3283 
  10   0.0000       1.335041        36.3283 
  11   0.0000       1.335041        36.3283 
  12   0.0000       1.335041        36.3283 
  13   0.0000       1.335041        36.3283 
  14   0.0000       2.196830        59.7788 
  15   0.0000       2.456796        66.8528 
  16   0.0000       2.456796        66.8528 
  17   0.0000       2.456796        66.8528 
  18   0.0000       4.294490       116.8590 
  19   0.0000       4.294490       116.8590 
  20   0.0000       4.294490       116.8590 
  21   0.0000       4.294490       116.8590 
  22   0.0000       4.294490       116.8590 
  23   0.0000       4.294490       116.8590 
  24   0.0000       4.294490       116.8590 
  25   0.0000       4.935075       134.2902 
  26   0.0000       4.935075       134.2902 
  27   0.0000       4.935075       134.2902 
  28   0.0000       4.935075       134.2902 
  29   0.0000       4.935075       134.2902 
  30   0.0000      32.347753       880.2271 

                    ********************************
                    * MULLIKEN POPULATION ANALYSIS *
                    ********************************

--------------------------------------------
MULLIKEN ATOMIC CHARGES AND SPIN POPULATIONS
--------------------------------------------
   0 N :   -0.000000    3.000000
Sum of atomic charges         :   -0.0000000
Sum of atomic spin populations:    3.0000000

-----------------------------------------------------
MULLIKEN REDUCED ORBITAL CHARGES AND SPIN POPULATIONS
-----------------------------------------------------
CHARGE
  0 N s       :     4.000000  s :     4.000000
      pz      :     1.000000  p :     3.000000
      px      :     1.000000
      py      :     1.000000
      dz2     :     0.000000  d :     0.000000
      dxz     :     0.000000
      dyz     :     0.000000
      dx2y2   :     0.000000
      dxy     :     0.000000
      f0      :     0.000000  f :     0.000000
      f+1     :     0.000000
      f-1     :     0.000000
      f+2     :     0.000000
      f-2     :     0.000000
      f+3     :     0.000000
      f-3     :     0.000000

SPIN
  0 N s       :     0.000000  s :     0.000000
      pz      :     1.000000  p :     3.000000
      px      :     1.000000
      py      :     1.000000
      dz2     :     0.000000  d :     0.000000
      dxz     :     0.000000
      dyz     :     0.000000
      dx2y2   :     0.000000
      dxy     :     0.000000
      f0      :     0.000000  f :     0.000000
      f+1     :     0.000000
      f-1     :     0.000000
      f+2     :     0.000000
      f-2     :     0.000000
      f+3     :     0.000000
      f-3     :     0.000000


                     *******************************
                     * LOEWDIN POPULATION ANALYSIS *
                     *******************************

-------------------------------------------
LOEWDIN ATOMIC CHARGES AND SPIN POPULATIONS
-------------------------------------------
   0 N :    0.000000    3.000000

----------------------------------------------------
LOEWDIN REDUCED ORBITAL CHARGES AND SPIN POPULATIONS
----------------------------------------------------
CHARGE
  0 N s       :     4.000000  s :     4.000000
      pz      :     1.000000  p :     3.000000
      px      :     1.000000
      py      :     1.000000
      dz2     :     0.000000  d :     0.000000
      dxz     :     0.000000
      dyz     :     0.000000
      dx2y2   :     0.000000
      dxy     :     0.000000
      f0      :     0.000000  f :     0.000000
      f+1     :     0.000000
      f-1     :     0.000000
      f+2     :     0.000000
      f-2     :     0.000000
      f+3     :     0.000000
      f-3     :     0.000000

SPIN
  0 N s       :     0.000000  s :     0.000000
      pz      :     1.000000  p :     3.000000
      px      :     1.000000
      py      :     1.000000
      dz2     :     0.000000  d :     0.000000
      dxz     :     0.000000
      dyz     :     0.000000
      dx2y2   :     0.000000
      dxy     :     0.000000
      f0      :     0.000000  f :     0.000000
      f+1     :     0.000000
      f-1     :     0.000000
      f+2     :     0.000000
      f-2     :     0.000000
      f+3     :     0.000000
      f-3     :     0.000000


                      *****************************
                      * MAYER POPULATION ANALYSIS *
                      *****************************

  NA   - Mulliken gross atomic population
  ZA   - Total nuclear charge
  QA   - Mulliken gross atomic charge
  VA   - Mayer's total valence
  BVA  - Mayer's bonded valence
  FA   - Mayer's free valence

  ATOM       NA         ZA         QA         VA         BVA        FA
  0 N      7.0000     7.0000    -0.0000     3.0155     0.0000     3.0155

  Mayer bond orders larger than 0.1


-------
TIMINGS
-------

Total SCF time: 0 days 0 hours 0 min 1 sec 

Total time                  ....       1.041 sec
Sum of individual times     ....       1.162 sec  (111.7%)

Fock matrix formation       ....       1.022 sec  ( 98.2%)
Diagonalization             ....       0.013 sec  (  1.2%)
Density matrix formation    ....       0.000 sec  (  0.0%)
Population analysis         ....       0.001 sec  (  0.1%)
Initial guess               ....       0.112 sec  ( 10.7%)
Orbital Transformation      ....       0.000 sec  (  0.0%)
Orbital Orthonormalization  ....       0.000 sec  (  0.0%)
DIIS solution               ....       0.002 sec  (  0.2%)

   <<< Auxbasis replaced with n.AUXC.tmp (Dim=76) >>> 


------------------------------------------------------------------------------
                              ORCA MP2 CALCULATION
------------------------------------------------------------------------------

Freezing NCore=2 chemical core electrons

   <<< Use J-auxbasis for calculation of Separable RI-J derivative contributions n.AUXJ.tmp (Dim=77) >>> 


---------------------
RI-MP2 ENERGY+DENSITY
---------------------
Dimension of the basis                    ...   31
Memory devoted to MP2                     ... 2000 MB   
Data format for buffers                   ... DOUBLE
Compression type for matrix containers    ... UNCOMPRESSED
Overall scaling of the MP2 energy         ...   1.000e+00 Eh
Calculating two index integrals           ... done (    0.006 sec)
Cholesky decomposition of V**-1           ... done (    0.000 sec)

-----------------
RI-TRANSFORMATION (AUX index driven)
-----------------

Dimension of the orbital-basis         ... 31
Dimension of the aux-basis             ... 76
Transformation of internal MOs         ...    0-   4
Transformation of internal/external MOs...    0-   4 to    5-  30
Number Format for Storage              ... Double (8 Byte)
Integral mode                          ... Direct

First Phase: integral generation and transformation of MO indices
  Aux angular momentum 0               ... done (    0.001 sec)
  Aux angular momentum 1               ... done (    0.001 sec)
  Aux angular momentum 2               ... done (    0.001 sec)
  Aux angular momentum 3               ... done (    0.001 sec)
  Aux angular momentum 4               ... done (    0.000 sec)
Closing buffer VIJ ( 0.00 GB; CompressionRatio= 1.52)
Closing buffer VIA ( 0.00 GB; CompressionRatio= 0.99)
  Phase 1 completed in     0.085 sec
Second Phase: sorting and transformation of aux index

IJ-Transformation
Memory available                       ... 2000 MB 
Max. # MO pairs treated in a batch     ... 5    
# of internal orbitals                 ... 5
# batches for internal orbitals        ... 1
Closing buffer IJV ( 0.00 GB; CompressionRatio= 0.98)
(ij|v) transformation done in     0.000 sec

IA-Transformation
Memory available                       ... 2000 MB 
Max. # MO pairs treated in a batch     ... 5    
# of internal orbitals                 ... 5
# batches for internal orbitals        ... 1
Closing buffer IAV ( 0.00 GB; CompressionRatio= 1.00)
(ia|v) transformation done in     0.000 sec

  Phase 2 completed in     0.001 sec
RI-Integral transformation completed in     0.086 sec

-----------------
RI-TRANSFORMATION (AUX index driven)
-----------------

Dimension of the orbital-basis         ... 31
Dimension of the aux-basis             ... 76
Transformation of internal MOs         ...    0-   1
Transformation of internal/external MOs...    0-   1 to    2-  30
Number Format for Storage              ... Double (8 Byte)
Integral mode                          ... Direct

First Phase: integral generation and transformation of MO indices
  Aux angular momentum 0               ... done (    0.001 sec)
  Aux angular momentum 1               ... done (    0.001 sec)
  Aux angular momentum 2               ... done (    0.001 sec)
  Aux angular momentum 3               ... done (    0.001 sec)
  Aux angular momentum 4               ... done (    0.000 sec)
Closing buffer VIJ ( 0.00 GB; CompressionRatio= 0.89)
Closing buffer VIA ( 0.00 GB; CompressionRatio= 0.97)
  Phase 1 completed in     0.086 sec
Second Phase: sorting and transformation of aux index

IJ-Transformation
Memory available                       ... 2000 MB 
Max. # MO pairs treated in a batch     ... 2    
# of internal orbitals                 ... 2
# batches for internal orbitals        ... 1
Closing buffer IJV ( 0.00 GB; CompressionRatio= 0.98)
(ij|v) transformation done in     0.000 sec

IA-Transformation
Memory available                       ... 2000 MB 
Max. # MO pairs treated in a batch     ... 2    
# of internal orbitals                 ... 2
# batches for internal orbitals        ... 1
Closing buffer IAV ( 0.00 GB; CompressionRatio= 1.00)
(ia|v) transformation done in     0.000 sec

  Phase 2 completed in     0.001 sec
RI-Integral transformation completed in     0.086 sec
Opening buffers                              ... done
Frozen core precalculation                   ... done

Starting loop over batches of integrals:

Operator 0  - window                       ... (  1-  4)x(  5- 30)
Operator 0  - Memory available             ...  2000 MB
Operator 0  - Memory needed per MO         ...   0.0 MB
Operator 0  - Number of orbitals per batch ... 4
Operator 0  - Number of batches            ... 1

OPERATOR  0   PASS   0:  MOs     1 ...    4
  Reading integrals       ... ok
  Internal MO   3

Operator 1  - window                       ... (  1-  1)x(  2- 30)
Operator 1  - Memory available             ...  2000 MB
Operator 1  - Memory needed per MO         ...   0.0 MB
Operator 1  - Number of orbitals per batch ... 1
Operator 1  - Number of batches            ... 1

OPERATOR  1   PASS   0:  MOs     1 ...    1
  Reading integrals       ... ok
Time spent in pair loops =     0.006 sec
Deleting buffer (Ka|jb)[aa] ...done
Deleting buffer (Ka|jb)[ab] ...done
Deleting buffer (Ka|jb)[ba] ...done
Deleting buffer (Ka|jb)[bb] ...done

Correlation energy components}
 E2 and T2 for alpha/alpha pairs :     -0.028889749 Eh      0.000000000
 E2 and T2 for beta/beta   pairs :      0.000000000 Eh      0.000000000
 E2 and T2 for alpha/beta  pairs :     -0.065975910 Eh      0.000000000


-----------------------------------------------
 RI-MP2 CORRELATION ENERGY:     -0.094865660 Eh
-----------------------------------------------


---------------------
MP2 DENSITY FORMATION
---------------------

Completing the external part of the density      ... done
Storing the unrelaxed density                    ... done

Calculating G(D)                                 ... done
Completing the Lagrangian                        ... done
Solving the Z-vector equations                   ... 

------------------------------------------------------------------------------
                           ORCA CP-SCF CALCULATION
------------------------------------------------------------------------------

Input orbitals are from        ... n.gbw
Input Perturbation             ... n.pin.tmp
Wavefunction output            ... n.pout.tmp
Perturbation mode              ... Real perturbation
Solver                         ... POPLE
Max. number of iterations      ... 128
Convergence tolerance          ... 1.000e-08
Integral handling              ... Direct
Number of perturbations        ... 1
Number of operators            ... 2
Orbital ranges used for CP-SCF:
 Operator 0:  Orbitals   0...  4  to   5... 30
 Operator 1:  Orbitals   0...  1  to   2... 30
Variables per vector in CP-SCF ... 188
Number of vectors sought       ... 1
     CP-SCF ITERATION   0: 
     CP-SCF ITERATION   1:      0.000001924
     CP-SCF ITERATION   2:      0.000000002
done
Finalizing the relaxed density                   ... done
Transforming P to the AO basis                   ... done
Storing the relaxed density                      ... done

                *********************************************
                * UNRELAXED MP2 DENSITY POPULATION ANALYSIS *
                *********************************************

------------------------------------------------------------------------------
                           ORCA POPULATION ANALYSIS
------------------------------------------------------------------------------
Input electron density              ... n.pmp2ur
Input spin density                  ... n.rmp2ur
BaseName (.gbw .S,...)              ... n

                    ********************************
                    * MULLIKEN POPULATION ANALYSIS *
                    ********************************

------------------------------------------
MULLIKEN ATOMIC CHARGES AND SPIN DENSITIES
------------------------------------------
   0 N :   -0.000000    3.000000
Sum of atomic charges       :   -0.0000000
Sum of atomic spin densities:    3.0000000

---------------------------------------------------
MULLIKEN REDUCED ORBITAL CHARGES AND SPIN DENSITIES
---------------------------------------------------
CHARGE
  0 N s       :     3.984879  s :     3.984879
      pz      :     0.998523  p :     2.995569
      px      :     0.998523
      py      :     0.998523
      dz2     :     0.003663  d :     0.018317
      dxz     :     0.003663
      dyz     :     0.003663
      dx2y2   :     0.003663
      dxy     :     0.003663
      f0      :     0.000176  f :     0.001235
      f+1     :     0.000176
      f-1     :     0.000176
      f+2     :     0.000176
      f-2     :     0.000176
      f+3     :     0.000176
      f-3     :     0.000176

SPIN
  0 N s       :     0.012424  s :     0.012424
      pz      :     0.990442  p :     2.971325
      px      :     0.990442
      py      :     0.990442
      dz2     :     0.003115  d :     0.015573
      dxz     :     0.003115
      dyz     :     0.003115
      dx2y2   :     0.003115
      dxy     :     0.003115
      f0      :     0.000097  f :     0.000679
      f+1     :     0.000097
      f-1     :     0.000097
      f+2     :     0.000097
      f-2     :     0.000097
      f+3     :     0.000097
      f-3     :     0.000097


                     *******************************
                     * LOEWDIN POPULATION ANALYSIS *
                     *******************************

-----------------------------------------
LOEWDIN ATOMIC CHARGES AND SPIN DENSITIES
-----------------------------------------
   0 N :   -0.000000    3.000000

--------------------------------------------------
LOEWDIN REDUCED ORBITAL CHARGES AND SPIN DENSITIES
--------------------------------------------------
CHARGE
  0 N s       :     3.984879  s :     3.984879
      pz      :     0.998523  p :     2.995569
      px      :     0.998523
      py      :     0.998523
      dz2     :     0.003663  d :     0.018317
      dxz     :     0.003663
      dyz     :     0.003663
      dx2y2   :     0.003663
      dxy     :     0.003663
      f0      :     0.000176  f :     0.001235
      f+1     :     0.000176
      f-1     :     0.000176
      f+2     :     0.000176
      f-2     :     0.000176
      f+3     :     0.000176
      f-3     :     0.000176

SPIN
  0 N s       :     0.012424  s :     0.012424
      pz      :     0.990442  p :     2.971325
      px      :     0.990442
      py      :     0.990442
      dz2     :     0.003115  d :     0.015573
      dxz     :     0.003115
      dyz     :     0.003115
      dx2y2   :     0.003115
      dxy     :     0.003115
      f0      :     0.000097  f :     0.000679
      f+1     :     0.000097
      f-1     :     0.000097
      f+2     :     0.000097
      f-2     :     0.000097
      f+3     :     0.000097
      f-3     :     0.000097


                      *****************************
                      * MAYER POPULATION ANALYSIS *
                      *****************************

  NA   - Mulliken gross atomic population
  ZA   - Total nuclear charge
  QA   - Mulliken gross atomic charge
  VA   - Mayer's total valence
  BVA  - Mayer's bonded valence
  FA   - Mayer's free valence

  ATOM       NA         ZA         QA         VA         BVA        FA
  0 N      7.0000     7.0000    -0.0000     3.1337     0.0000     3.1337




                *******************************************
                * RELAXED MP2 DENSITY POPULATION ANALYSIS *
                *******************************************

------------------------------------------------------------------------------
                           ORCA POPULATION ANALYSIS
------------------------------------------------------------------------------
Input electron density              ... n.pmp2re
Input spin density                  ... n.rmp2re
BaseName (.gbw .S,...)              ... n

                    ********************************
                    * MULLIKEN POPULATION ANALYSIS *
                    ********************************

------------------------------------------
MULLIKEN ATOMIC CHARGES AND SPIN DENSITIES
------------------------------------------
   0 N :   -0.000000    3.000000
Sum of atomic charges       :   -0.0000000
Sum of atomic spin densities:    3.0000000

---------------------------------------------------
MULLIKEN REDUCED ORBITAL CHARGES AND SPIN DENSITIES
---------------------------------------------------
CHARGE
  0 N s       :     3.984879  s :     3.984879
      pz      :     0.998523  p :     2.995569
      px      :     0.998523
      py      :     0.998523
      dz2     :     0.003663  d :     0.018317
      dxz     :     0.003663
      dyz     :     0.003663
      dx2y2   :     0.003663
      dxy     :     0.003663
      f0      :     0.000176  f :     0.001235
      f+1     :     0.000176
      f-1     :     0.000176
      f+2     :     0.000176
      f-2     :     0.000176
      f+3     :     0.000176
      f-3     :     0.000176

SPIN
  0 N s       :     0.012424  s :     0.012424
      pz      :     0.990442  p :     2.971325
      px      :     0.990442
      py      :     0.990442
      dz2     :     0.003115  d :     0.015573
      dxz     :     0.003115
      dyz     :     0.003115
      dx2y2   :     0.003115
      dxy     :     0.003115
      f0      :     0.000097  f :     0.000679
      f+1     :     0.000097
      f-1     :     0.000097
      f+2     :     0.000097
      f-2     :     0.000097
      f+3     :     0.000097
      f-3     :     0.000097


                     *******************************
                     * LOEWDIN POPULATION ANALYSIS *
                     *******************************

-----------------------------------------
LOEWDIN ATOMIC CHARGES AND SPIN DENSITIES
-----------------------------------------
   0 N :   -0.000000    3.000000

--------------------------------------------------
LOEWDIN REDUCED ORBITAL CHARGES AND SPIN DENSITIES
--------------------------------------------------
CHARGE
  0 N s       :     3.984879  s :     3.984879
      pz      :     0.998523  p :     2.995569
      px      :     0.998523
      py      :     0.998523
      dz2     :     0.003663  d :     0.018317
      dxz     :     0.003663
      dyz     :     0.003663
      dx2y2   :     0.003663
      dxy     :     0.003663
      f0      :     0.000176  f :     0.001235
      f+1     :     0.000176
      f-1     :     0.000176
      f+2     :     0.000176
      f-2     :     0.000176
      f+3     :     0.000176
      f-3     :     0.000176

SPIN
  0 N s       :     0.012424  s :     0.012424
      pz      :     0.990442  p :     2.971325
      px      :     0.990442
      py      :     0.990442
      dz2     :     0.003115  d :     0.015573
      dxz     :     0.003115
      dyz     :     0.003115
      dx2y2   :     0.003115
      dxy     :     0.003115
      f0      :     0.000097  f :     0.000679
      f+1     :     0.000097
      f-1     :     0.000097
      f+2     :     0.000097
      f-2     :     0.000097
      f+3     :     0.000097
      f-3     :     0.000097


                      *****************************
                      * MAYER POPULATION ANALYSIS *
                      *****************************

  NA   - Mulliken gross atomic population
  ZA   - Total nuclear charge
  QA   - Mulliken gross atomic charge
  VA   - Mayer's total valence
  BVA  - Mayer's bonded valence
  FA   - Mayer's free valence

  ATOM       NA         ZA         QA         VA         BVA        FA
  0 N      7.0000     7.0000    -0.0000     3.1288     0.0000     3.1288




-------
TIMINGS
-------

Total time                :    0.970 sec
Integral trafo            :    0.193 sec ( 19.9%)
FC preparation            :    0.001 sec (  0.1%)
I/O of integrals          :    0.000 sec (  0.0%)
K(i,j) Operators          :    0.000 sec (  0.0%)
T(i,j) pair energies      :    0.000 sec (  0.0%)
V-calculation             :    0.006 sec (  0.6%)
V**(-1/2)                 :    0.000 sec (  0.0%)
Gamma(ia|P)               :    0.000 sec (  0.0%)
Gamma-Trafo               :    0.000 sec (  0.0%)
D(virtual)                :    0.000 sec (  0.0%)
D(internal)               :    0.000 sec (  0.0%)
W(virtual)                :    0.000 sec (  0.0%)
W(internal)               :    0.000 sec (  0.0%)
L(virtual)                :    0.004 sec (  0.4%)
L(internal)               :    0.000 sec (  0.0%)
G(D)                      :    0.200 sec ( 20.6%)
G(Z)                      :    0.000 sec (  0.0%)
Z-Vector Solution         :    0.542 sec ( 55.9%)
3-Index Derivative        :    0.000 sec (  0.0%)
2-Index Derivative        :    0.000 sec (  0.0%)
Separable Gradient (RIJ)  :    0.000 sec (  0.0%)
Separable Gradient (X)    :    0.000 sec (  0.0%)


---------------------------------------
MP2 TOTAL ENERGY:      -54.497609443 Eh
---------------------------------------

-------------------------   --------------------
FINAL SINGLE POINT ENERGY       -54.497609443022
-------------------------   --------------------


                            ***************************************
                            *     ORCA property calculations      *
                            ***************************************

                                    ---------------------
                                    Active property flags
                                    ---------------------
   (+) Dipole Moment


------------------------------------------------------------------------------
                       ORCA ELECTRIC PROPERTIES CALCULATION
------------------------------------------------------------------------------

Dipole Moment Calculation                       ... on
Quadrupole Moment Calculation                   ... off
Polarizability Calculation                      ... off
GBWName                                         ... n.gbw
Electron density file                           ... n.scfp.tmp

-------------
DIPOLE MOMENT
-------------
                                X             Y             Z
Electronic contribution:      0.00000       0.00000      -0.00000
Nuclear contribution   :      0.00000       0.00000       0.00000
                        -----------------------------------------
Total Dipole Moment    :      0.00000       0.00000      -0.00000
                        -----------------------------------------
Magnitude (a.u.)       :      0.00000
Magnitude (Debye)      :      0.00000


                         *** MP2 UNRELAXED DENSITY ***

------------------------------------------------------------------------------
                       ORCA ELECTRIC PROPERTIES CALCULATION
------------------------------------------------------------------------------

Dipole Moment Calculation                       ... on
Quadrupole Moment Calculation                   ... off
Polarizability Calculation                      ... off
GBWName                                         ... n.gbw
Electron density file                           ... n.pmp2ur

-------------
DIPOLE MOMENT
-------------
                                X             Y             Z
Electronic contribution:      0.00000       0.00000      -0.00000
Nuclear contribution   :      0.00000       0.00000       0.00000
                        -----------------------------------------
Total Dipole Moment    :      0.00000       0.00000      -0.00000
                        -----------------------------------------
Magnitude (a.u.)       :      0.00000
Magnitude (Debye)      :      0.00000


                           *** MP2 RELAXED DENSITY ***

------------------------------------------------------------------------------
                       ORCA ELECTRIC PROPERTIES CALCULATION
------------------------------------------------------------------------------

Dipole Moment Calculation                       ... on
Quadrupole Moment Calculation                   ... off
Polarizability Calculation                      ... off
GBWName                                         ... n.gbw
Electron density file                           ... n.pmp2re

-------------
DIPOLE MOMENT
-------------
                                X             Y             Z
Electronic contribution:      0.00000       0.00000      -0.00000
Nuclear contribution   :      0.00000       0.00000       0.00000
                        -----------------------------------------
Total Dipole Moment    :      0.00000       0.00000      -0.00000
                        -----------------------------------------
Magnitude (a.u.)       :      0.00000
Magnitude (Debye)      :      0.00000


Timings for individual modules:

Sum of individual times         ...        2.372 sec (=   0.040 min)
GTO integral calculation        ...        0.118 sec (=   0.002 min)   5.0 %
SCF iterations                  ...        1.169 sec (=   0.019 min)  49.3 %
MP2 module                      ...        1.085 sec (=   0.018 min)  45.8 %
                             ****ORCA TERMINATED NORMALLY****
TOTAL RUN TIME: 0 days 0 hours 0 minutes 2 seconds 713 msec
