
                                 *****************
                                 * O   R   C   A *
                                 *****************

           --- An Ab Initio, DFT and Semiempirical electronic structure package ---

                  #######################################################
                  #                        -***-                        #
                  #  Department of molecular theory and spectroscopy    #
                  #              Directorship: Frank Neese              #
                  # Max Planck Institute for Chemical Energy Conversion #
                  #                  D-45470 Muelheim/Ruhr              #
                  #                       Germany                       #
                  #                                                     #
                  #                  All rights reserved                #
                  #                        -***-                        #
                  #######################################################


                         Program Version 3.0.3 - RELEASE   -


 With contributions from (in alphabetic order):
   Ute Becker             : Parallelization
   Dmytro Bykov           : SCF Hessian
   Dmitry Ganyushin       : Spin-Orbit,Spin-Spin,Magnetic field MRCI
   Andreas Hansen         : Spin unrestricted coupled pair/coupled cluster methods
   Dimitrios Liakos       : Extrapolation schemes; parallel MDCI
   Robert Izsak           : Overlap fitted RIJCOSX, COSX-SCS-MP3
   Christian Kollmar      : KDIIS, OOCD, Brueckner-CCSD(T), CCSD density
   Simone Kossmann        : Meta GGA functionals, TD-DFT gradient, OOMP2, MP2 Hessian
   Taras Petrenko         : DFT Hessian,TD-DFT gradient, ASA and ECA modules, normal mode analysis, Resonance Raman, ABS, FL, XAS/XES, NRVS
   Christoph Reimann      : Effective Core Potentials
   Michael Roemelt        : Restricted open shell CIS
   Christoph Riplinger    : Improved optimizer, TS searches, QM/MM, DLPNO-CCSD
   Barbara Sandhoefer     : DKH picture change effects
   Igor Schapiro          : Molecular dynamics
   Kantharuban Sivalingam : CASSCF convergence, NEVPT2
   Boris Wezisla          : Elementary symmetry handling
   Frank Wennmohs         : Technical directorship


 We gratefully acknowledge several colleagues who have allowed us to
 interface, adapt or use parts of their codes:
   Stefan Grimme, W. Hujo, H. Kruse, T. Risthaus : VdW corrections, initial TS optimization,
                                                   DFT functionals, gCP
   Ed Valeev                                     : LibInt (2-el integral package), F12 methods
   Garnet Chan, S. Sharma, R. Olivares           : DMRG
   Ulf Ekstrom                                   : XCFun DFT Library
   Mihaly Kallay                                 : mrcc  (arbitrary order and MRCC methods)
   Andreas Klamt, Michael Diedenhofen            : otool_cosmo (COSMO solvation model)
   Frank Weinhold                                : gennbo (NPA and NBO analysis)
   Christopher J. Cramer and Donald G. Truhlar   : smd solvation model


 Your calculation uses the libint2 library for the computation of 2-el integrals
 For citations please refer to: http://libint.valeyev.net

 This ORCA versions uses:
   CBLAS   interface :  Fast vector & matrix operations
   LAPACKE interface :  Fast linear algebra routines
   SCALAPACK package :  Parallel linear algebra routines


Your calculation utilizes the basis: Ahlrichs-TZV
Cite in your paper:
H - Kr: A. Schaefer, H. Horn and R. Ahlrichs, J. Chem. Phys. 97, 2571 (1992).

The def2-TZV basis will be loaded
Cite in your paper:
 	F. Weigend, R. Ahlrichs, Phys. Chem. Chem. Phys. 2005, 7, 3297.

================================================================================
                                        WARNINGS
                       Please study these warnings very carefully!
================================================================================
Now building the actual basis set

WARNING: your system is open-shell and RHF/RKS was chosen
  ===> : WILL SWITCH to UHF/UKS



INFO   : the flag for use of LIBINT has been found!

================================================================================
                                       INPUT FILE
================================================================================
NAME = o.inp
|  1> ! RI-MP2 RIJK def2-TZVP def2-TZVP/C def2-TZVP/JK TIGHTSCF
|  2> % maxcore 2000
|  3> % mp2 density relaxed end
|  4> *xyz 0 3
|  5>  O       0.0000000     0.0000000     0.000000000
|  6> *
|  7> 
|  8>                          ****END OF INPUT****
================================================================================

                       ****************************
                       * Single Point Calculation *
                       ****************************

---------------------------------
CARTESIAN COORDINATES (ANGSTROEM)
---------------------------------
  O      0.000000    0.000000    0.000000

----------------------------
CARTESIAN COORDINATES (A.U.)
----------------------------
  NO LB      ZA    FRAG    MASS        X           Y           Z
   0 O     8.0000    0    15.999          0.000000000000000          0.000000000000000          0.000000000000000

--------------------------------
INTERNAL COORDINATES (ANGSTROEM)
--------------------------------
 O      0   0   0   0.000000     0.000     0.000

---------------------------
INTERNAL COORDINATES (A.U.)
---------------------------
 O      0   0   0   0.000000     0.000     0.000

---------------------
BASIS SET INFORMATION
---------------------
There are 1 groups of distinct atoms

 Group   1 Type O   : 11s6p2d1f contracted to 5s3p2d1f pattern {62111/411/11/1}

Atom   0O    basis set group =>   1
-------------------------------
AUXILIARY BASIS SET INFORMATION
-------------------------------
There are 1 groups of distinct atoms

 Group   1 Type O   : 14s10p6d2f1g contracted to 10s8p4d2f1g pattern {5111111111/31111111/3111/11/1}

Atom   0O    basis set group =>   1
------------------------------------------------------------------------------
                           ORCA GTO INTEGRAL CALCULATION
                           -- RI-GTO INTEGRALS CHOSEN --
------------------------------------------------------------------------------

                         BASIS SET STATISTICS AND STARTUP INFO

Gaussian basis set:
 # of primitive gaussian shells          ...   20
 # of primitive gaussian functions       ...   46
 # of contracted shells                  ...   11
 # of contracted basis functions         ...   31
 Highest angular momentum                ...    3
 Maximum contraction depth               ...    6
Auxiliary gaussian basis set:
 # of primitive gaussian shells          ...   33
 # of primitive gaussian functions       ...   97
 # of contracted shells                  ...   25
 # of contracted aux-basis functions     ...   77
 Highest angular momentum                ...    4
 Maximum contraction depth               ...    5
Ratio of auxiliary to basis functions    ...  2.48
Integral package used                  ... LIBINT
 One Electron integrals                  ... done
 Ordering auxiliary basis shells         ... done
 Integral threshhold             Thresh  ...  2.500e-11
 Primitive cut-off               TCut    ...  2.500e-12
 Pre-screening matrix                    ... done
 Shell pair data                         ... 
 Ordering of the shell pairs             ... done (   0.000 sec) 66 of 66 pairs
 Determination of significant pairs      ... done (   0.000 sec)
 Creation of shell pair data             ... done (   0.000 sec)
 Storage of shell pair data              ... done (   0.000 sec)
 Shell pair data done in (   0.000 sec)
 Computing two index integrals           ... done
 Cholesky decomposition of the V-matrix  ... done


Timings:
 Total evaluation time                   ...   0.101 sec (  0.002 min)
 One electron matrix time                ...   0.003 sec (  0.000 min) =  2.6%
 Schwartz matrix evaluation time         ...   0.074 sec (  0.001 min) = 73.6%
 Two index repulsion integral time       ...   0.000 sec (  0.000 min) =  0.2%
 Cholesky decomposition of V             ...   0.000 sec (  0.000 min) =  0.2%
 Three index repulsion integral time     ...   0.000 sec (  0.000 min) =  0.0%

-------------------------------------------------------------------------------
                                 ORCA SCF
-------------------------------------------------------------------------------

------------
SCF SETTINGS
------------
Hamiltonian:
 Ab initio Hamiltonian  Method          .... Hartree-Fock(GTOs)
 RI-approximation to the Coulomb term is turned on
   Number of auxiliary basis functions  .... 77
   RI-JK (J+K treated both via RI)      .... on


General Settings:
 Integral files         IntName         .... o
 Hartree-Fock type      HFTyp           .... UHF
 Total Charge           Charge          ....    0
 Multiplicity           Mult            ....    3
 Number of Electrons    NEL             ....    8
 Basis Dimension        Dim             ....   31
 Nuclear Repulsion      ENuc            ....      0.0000000000 Eh

Convergence Acceleration:
 DIIS                   CNVDIIS         .... on
   Start iteration      DIISMaxIt       ....    12
   Startup error        DIISStart       ....  0.200000
   # of expansion vecs  DIISMaxEq       ....     5
   Bias factor          DIISBfac        ....   1.050
   Max. coefficient     DIISMaxC        ....  10.000
 Newton-Raphson         CNVNR           .... off
 SOSCF                  CNVSOSCF        .... off
 Level Shifting         CNVShift        .... on
   Level shift para.    LevelShift      ....    0.2500
   Turn off err/grad.   ShiftErr        ....    0.0010
 Zerner damping         CNVZerner       .... off
 Static damping         CNVDamp         .... on
   Fraction old density DampFac         ....    0.7000
   Max. Damping (<1)    DampMax         ....    0.9800
   Min. Damping (>=0)   DampMin         ....    0.0000
   Turn off err/grad.   DampErr         ....    0.1000
 Fernandez-Rico         CNVRico         .... off

SCF Procedure:
 Maximum # iterations   MaxIter         ....   125
 SCF integral mode      SCFMode         .... Direct
   Integral package                     .... LIBINT
 Reset frequeny         DirectResetFreq ....    20
 Integral Threshold     Thresh          ....  2.500e-11 Eh
 Primitive CutOff       TCut            ....  2.500e-12 Eh

Convergence Tolerance:
 Convergence Check Mode ConvCheckMode   .... Total+1el-Energy
 Energy Change          TolE            ....  1.000e-08 Eh
 1-El. energy change                    ....  1.000e-05 Eh
 DIIS Error             TolErr          ....  5.000e-07


Diagonalization of the overlap matrix:
Smallest eigenvalue                        ... 3.025e-02
Time for diagonalization                   ...    0.001 sec
Threshold for overlap eigenvalues          ... 1.000e-08
Number of eigenvalues below threshold      ... 0
Time for construction of square roots      ...    0.000 sec
Total time needed                          ...    0.001 sec

-------------------
DFT GRID GENERATION
-------------------

General Integration Accuracy     IntAcc      ...  4.340
Radial Grid Type                 RadialGrid  ... Gauss-Chebyshev
Angular Grid (max. acc.)         AngularGrid ... Lebedev-110
Angular grid pruning method      GridPruning ... 3 (G Style)
Weight generation scheme         WeightScheme... Becke
Basis function cutoff            BFCut       ...    1.0000e-11
Integration weight cutoff        WCut        ...    1.0000e-14
Grids for H and He will be reduced by one unit

# of grid points (after initial pruning)     ...   1716 (   0.0 sec)
# of grid points (after weights+screening)   ...   1716 (   0.0 sec)
Grid point division into batches done        ...    0.0 sec
Reduced shell lists constructed in    0.0 sec

Total number of grid points                  ...     1716
Total number of batches                      ...       27
Average number of points per batch           ...       63
Average number of grid points per atom       ...     1716
Average number of shells per batch           ...     9.64 (87.66%)
Average number of basis functions per batch  ...    28.07 (90.55%)
Average number of large shells per batch     ...     9.00 (93.33%)
Average number of large basis fcns per batch ...    26.64 (94.91%)
Average number of aux-shells per batch       ...     9.64 (38.57%)
Average number of aux functions per batch    ...    28.07 (  inf%)
Maximum spatial batch extension              ...  13.89, 25.65, 25.65 au
Average spatial batch extension              ...   6.72,  7.87,  8.96 au

Time for grid setup =    0.012 sec

------------------------------
INITIAL GUESS: MODEL POTENTIAL
------------------------------
Loading Hartree-Fock densities                     ... done
Calculating cut-offs                               ... done
Setting up the integral package                    ... done
Initializing the effective Hamiltonian             ... done
Starting the Coulomb interaction                   ... done (   0.0 sec)
Reading the grid                                   ... done
Mapping shells                                     ... done
Starting the XC term evaluation                    ... done (   0.0 sec)
Transforming the Hamiltonian                       ... done (   0.0 sec)
Diagonalizing the Hamiltonian                      ... done (   0.0 sec)
Back transforming the eigenvectors                 ... done (   0.0 sec)
Now organizing SCF variables                       ... done
                      ------------------
                      INITIAL GUESS DONE (   0.1 sec)
                      ------------------
--------------
SCF ITERATIONS
--------------
ITER       Energy         Delta-E        Max-DP      RMS-DP      [F,P]     Damp
  0    -74.7968741793   0.000000000000 0.00897434  0.00066890  0.3155272 0.7000
  1    -74.8320721384  -0.035197959097 0.00968732  0.00073725  0.2482686 0.7000
                               ***Turning on DIIS***
  2    -74.8368943838  -0.004822245396 0.00806762  0.00062177  0.1693907 0.7000
  3    -74.7672427109   0.069651672888 0.00661696  0.00050897  0.1128058 0.7000
  4    -74.7677671979  -0.000524486971 0.01848875  0.00133195  0.0771296 0.0000
  5    -74.8073533659  -0.039586167996 0.00265003  0.00014448  0.0102812 0.0000
  6    -74.8131938153  -0.005840449432 0.00099462  0.00006607  0.0029016 0.0000
  7    -74.8151832687  -0.001989453392 0.00069788  0.00004785  0.0014255 0.0000
  8    -74.8156504614  -0.000467192690 0.00053406  0.00003046  0.0005557 0.0000
  9    -74.8156451037   0.000005357686 0.00013709  0.00000624  0.0000521 0.0000
 10    -74.8156225013   0.000022602466 0.00004582  0.00000219  0.0000060 0.0000
 11    -74.8156219726   0.000000528641 0.00001836  0.00000095  0.0000019 0.0000
                            ***DIIS convergence achieved***

               *****************************************************
               *                     SUCCESS                       *
               *           SCF CONVERGED AFTER  12 CYCLES          *
               *****************************************************


----------------
TOTAL SCF ENERGY
----------------

Total Energy       :          -74.81562257 Eh           -2035.83659 eV

Components:
Nuclear Repulsion  :            0.00000000 Eh               0.00000 eV
Electronic Energy  :          -74.81562257 Eh           -2035.83659 eV

One Electron Energy:         -103.25835684 Eh           -2809.80274 eV
Two Electron Energy:           28.44273427 Eh             773.96615 eV

Virial components:
Potential Energy   :         -149.63788775 Eh           -4071.85393 eV
Kinetic Energy     :           74.82226518 Eh            2036.01734 eV
Virial Ratio       :            1.99991122


---------------
SCF CONVERGENCE
---------------

  Last Energy change         ...   -6.0021e-07  Tolerance :   1.0000e-08
  Last MAX-Density change    ...    7.7848e-06  Tolerance :   1.0000e-07
  Last RMS-Density change    ...    4.2046e-07  Tolerance :   5.0000e-09
  Last DIIS Error            ...    9.3381e-07  Tolerance :   5.0000e-07

             **** THE GBW FILE WAS UPDATED (o.gbw) ****
             **** DENSITY FILE WAS UPDATED (o.scfp.tmp) ****
             **** ENERGY FILE WAS UPDATED (o.en.tmp) ****
----------------------
UHF SPIN CONTAMINATION
----------------------

Expectation value of <S**2>     :     2.008226
Ideal value S*(S+1) for S=1.0   :     2.000000
Deviation                       :     0.008226

----------------
ORBITAL ENERGIES
----------------
                 SPIN UP ORBITALS
  NO   OCC          E(Eh)            E(eV) 
   0   1.0000     -20.706006      -563.4391 
   1   1.0000      -1.416249       -38.5381 
   2   1.0000      -0.709255       -19.2998 
   3   1.0000      -0.709255       -19.2998 
   4   1.0000      -0.610028       -16.5997 
   5   0.0000       0.471857        12.8399 
   6   0.0000       0.526338        14.3224 
   7   0.0000       0.526338        14.3224 
   8   0.0000       0.561817        15.2878 
   9   0.0000       1.610285        43.8181 
  10   0.0000       1.610285        43.8181 
  11   0.0000       1.659422        45.1552 
  12   0.0000       1.659422        45.1552 
  13   0.0000       1.676685        45.6249 
  14   0.0000       2.792684        75.9928 
  15   0.0000       2.792684        75.9928 
  16   0.0000       2.860246        77.8312 
  17   0.0000       2.863896        77.9306 
  18   0.0000       5.413303       147.3035 
  19   0.0000       5.413303       147.3035 
  20   0.0000       5.461202       148.6069 
  21   0.0000       5.461202       148.6069 
  22   0.0000       5.490412       149.4017 
  23   0.0000       5.490412       149.4017 
  24   0.0000       5.500236       149.6690 
  25   0.0000       6.517049       177.3379 
  26   0.0000       6.517049       177.3379 
  27   0.0000       6.585541       179.2017 
  28   0.0000       6.585541       179.2017 
  29   0.0000       6.609412       179.8513 
  30   0.0000      44.184960      1202.3339 

                 SPIN DOWN ORBITALS
  NO   OCC          E(Eh)            E(eV) 
   0   1.0000     -20.626705      -561.2812 
   1   1.0000      -1.074503       -29.2387 
   2   1.0000      -0.520887       -14.1740 
   3   0.0000       0.099934         2.7193 
   4   0.0000       0.099934         2.7193 
   5   0.0000       0.515970        14.0403 
   6   0.0000       0.584680        15.9099 
   7   0.0000       0.675253        18.3746 
   8   0.0000       0.675253        18.3746 
   9   0.0000       1.738843        47.3163 
  10   0.0000       1.746447        47.5232 
  11   0.0000       1.746447        47.5232 
  12   0.0000       1.773589        48.2618 
  13   0.0000       1.773589        48.2618 
  14   0.0000       2.910623        79.2021 
  15   0.0000       2.958703        80.5104 
  16   0.0000       2.976804        81.0030 
  17   0.0000       2.976804        81.0030 
  18   0.0000       5.531406       150.5172 
  19   0.0000       5.531406       150.5172 
  20   0.0000       5.543075       150.8347 
  21   0.0000       5.543075       150.8347 
  22   0.0000       5.549939       151.0215 
  23   0.0000       5.549939       151.0215 
  24   0.0000       5.552204       151.0832 
  25   0.0000       6.699103       182.2919 
  26   0.0000       6.703078       182.4000 
  27   0.0000       6.703078       182.4000 
  28   0.0000       6.715777       182.7456 
  29   0.0000       6.715777       182.7456 
  30   0.0000      44.228051      1203.5065 

                    ********************************
                    * MULLIKEN POPULATION ANALYSIS *
                    ********************************

--------------------------------------------
MULLIKEN ATOMIC CHARGES AND SPIN POPULATIONS
--------------------------------------------
   0 O :   -0.000000    2.000000
Sum of atomic charges         :   -0.0000000
Sum of atomic spin populations:    2.0000000

-----------------------------------------------------
MULLIKEN REDUCED ORBITAL CHARGES AND SPIN POPULATIONS
-----------------------------------------------------
CHARGE
  0 O s       :     3.998617  s :     3.998617
      pz      :     1.010891  p :     3.999791
      px      :     1.988905
      py      :     0.999994
      dz2     :     0.000323  d :     0.001383
      dxz     :     0.000045
      dyz     :     0.000000
      dx2y2   :     0.001014
      dxy     :     0.000000
      f0      :     0.000022  f :     0.000209
      f+1     :     0.000035
      f-1     :     0.000003
      f+2     :     0.000038
      f-2     :     0.000002
      f+3     :     0.000056
      f-3     :     0.000054

SPIN
  0 O s       :     0.000424  s :     0.000424
      pz      :     0.988990  p :     1.999794
      px      :     0.010916
      py      :     0.999888
      dz2     :    -0.000099  d :    -0.000424
      dxz     :    -0.000014
      dyz     :    -0.000000
      dx2y2   :    -0.000311
      dxy     :    -0.000000
      f0      :     0.000022  f :     0.000206
      f+1     :     0.000034
      f-1     :     0.000003
      f+2     :     0.000038
      f-2     :     0.000002
      f+3     :     0.000054
      f-3     :     0.000054


                     *******************************
                     * LOEWDIN POPULATION ANALYSIS *
                     *******************************

-------------------------------------------
LOEWDIN ATOMIC CHARGES AND SPIN POPULATIONS
-------------------------------------------
   0 O :   -0.000000    2.000000

----------------------------------------------------
LOEWDIN REDUCED ORBITAL CHARGES AND SPIN POPULATIONS
----------------------------------------------------
CHARGE
  0 O s       :     3.998617  s :     3.998617
      pz      :     1.010891  p :     3.999791
      px      :     1.988905
      py      :     0.999994
      dz2     :     0.000323  d :     0.001383
      dxz     :     0.000045
      dyz     :     0.000000
      dx2y2   :     0.001014
      dxy     :     0.000000
      f0      :     0.000022  f :     0.000209
      f+1     :     0.000035
      f-1     :     0.000003
      f+2     :     0.000038
      f-2     :     0.000002
      f+3     :     0.000056
      f-3     :     0.000054

SPIN
  0 O s       :     0.000424  s :     0.000424
      pz      :     0.988990  p :     1.999794
      px      :     0.010916
      py      :     0.999888
      dz2     :    -0.000099  d :    -0.000424
      dxz     :    -0.000014
      dyz     :    -0.000000
      dx2y2   :    -0.000311
      dxy     :    -0.000000
      f0      :     0.000022  f :     0.000206
      f+1     :     0.000034
      f-1     :     0.000003
      f+2     :     0.000038
      f-2     :     0.000002
      f+3     :     0.000054
      f-3     :     0.000054


                      *****************************
                      * MAYER POPULATION ANALYSIS *
                      *****************************

  NA   - Mulliken gross atomic population
  ZA   - Total nuclear charge
  QA   - Mulliken gross atomic charge
  VA   - Mayer's total valence
  BVA  - Mayer's bonded valence
  FA   - Mayer's free valence

  ATOM       NA         ZA         QA         VA         BVA        FA
  0 O      8.0000     8.0000    -0.0000     2.0165     0.0000     2.0165

  Mayer bond orders larger than 0.1


-------
TIMINGS
-------

Total SCF time: 0 days 0 hours 0 min 1 sec 

Total time                  ....       1.263 sec
Sum of individual times     ....       1.382 sec  (109.4%)

Fock matrix formation       ....       1.243 sec  ( 98.4%)
Diagonalization             ....       0.013 sec  (  1.1%)
Density matrix formation    ....       0.000 sec  (  0.0%)
Population analysis         ....       0.001 sec  (  0.1%)
Initial guess               ....       0.110 sec  (  8.7%)
Orbital Transformation      ....       0.000 sec  (  0.0%)
Orbital Orthonormalization  ....       0.000 sec  (  0.0%)
DIIS solution               ....       0.002 sec  (  0.2%)

   <<< Auxbasis replaced with o.AUXC.tmp (Dim=76) >>> 


------------------------------------------------------------------------------
                              ORCA MP2 CALCULATION
------------------------------------------------------------------------------

Freezing NCore=2 chemical core electrons

   <<< Use J-auxbasis for calculation of Separable RI-J derivative contributions o.AUXJ.tmp (Dim=77) >>> 


---------------------
RI-MP2 ENERGY+DENSITY
---------------------
Dimension of the basis                    ...   31
Memory devoted to MP2                     ... 2000 MB   
Data format for buffers                   ... DOUBLE
Compression type for matrix containers    ... UNCOMPRESSED
Overall scaling of the MP2 energy         ...   1.000e+00 Eh
Calculating two index integrals           ... done (    0.006 sec)
Cholesky decomposition of V**-1           ... done (    0.000 sec)

-----------------
RI-TRANSFORMATION (AUX index driven)
-----------------

Dimension of the orbital-basis         ... 31
Dimension of the aux-basis             ... 76
Transformation of internal MOs         ...    0-   4
Transformation of internal/external MOs...    0-   4 to    5-  30
Number Format for Storage              ... Double (8 Byte)
Integral mode                          ... Direct

First Phase: integral generation and transformation of MO indices
  Aux angular momentum 0               ... done (    0.001 sec)
  Aux angular momentum 1               ... done (    0.001 sec)
  Aux angular momentum 2               ... done (    0.001 sec)
  Aux angular momentum 3               ... done (    0.001 sec)
  Aux angular momentum 4               ... done (    0.000 sec)
Closing buffer VIJ ( 0.00 GB; CompressionRatio= 1.52)
Closing buffer VIA ( 0.00 GB; CompressionRatio= 0.99)
  Phase 1 completed in     0.085 sec
Second Phase: sorting and transformation of aux index

IJ-Transformation
Memory available                       ... 2000 MB 
Max. # MO pairs treated in a batch     ... 5    
# of internal orbitals                 ... 5
# batches for internal orbitals        ... 1
Closing buffer IJV ( 0.00 GB; CompressionRatio= 0.98)
(ij|v) transformation done in     0.000 sec

IA-Transformation
Memory available                       ... 2000 MB 
Max. # MO pairs treated in a batch     ... 5    
# of internal orbitals                 ... 5
# batches for internal orbitals        ... 1
Closing buffer IAV ( 0.00 GB; CompressionRatio= 1.00)
(ia|v) transformation done in     0.000 sec

  Phase 2 completed in     0.001 sec
RI-Integral transformation completed in     0.086 sec

-----------------
RI-TRANSFORMATION (AUX index driven)
-----------------

Dimension of the orbital-basis         ... 31
Dimension of the aux-basis             ... 76
Transformation of internal MOs         ...    0-   2
Transformation of internal/external MOs...    0-   2 to    3-  30
Number Format for Storage              ... Double (8 Byte)
Integral mode                          ... Direct

First Phase: integral generation and transformation of MO indices
  Aux angular momentum 0               ... done (    0.001 sec)
  Aux angular momentum 1               ... done (    0.001 sec)
  Aux angular momentum 2               ... done (    0.001 sec)
  Aux angular momentum 3               ... done (    0.001 sec)
  Aux angular momentum 4               ... done (    0.000 sec)
Closing buffer VIJ ( 0.00 GB; CompressionRatio= 1.20)
Closing buffer VIA ( 0.00 GB; CompressionRatio= 0.98)
  Phase 1 completed in     0.086 sec
Second Phase: sorting and transformation of aux index

IJ-Transformation
Memory available                       ... 2000 MB 
Max. # MO pairs treated in a batch     ... 3    
# of internal orbitals                 ... 3
# batches for internal orbitals        ... 1
Closing buffer IJV ( 0.00 GB; CompressionRatio= 0.98)
(ij|v) transformation done in     0.000 sec

IA-Transformation
Memory available                       ... 2000 MB 
Max. # MO pairs treated in a batch     ... 3    
# of internal orbitals                 ... 3
# batches for internal orbitals        ... 1
Closing buffer IAV ( 0.00 GB; CompressionRatio= 1.00)
(ia|v) transformation done in     0.000 sec

  Phase 2 completed in     0.001 sec
RI-Integral transformation completed in     0.087 sec
Opening buffers                              ... done
Frozen core precalculation                   ... done

Starting loop over batches of integrals:

Operator 0  - window                       ... (  1-  4)x(  5- 30)
Operator 0  - Memory available             ...  2000 MB
Operator 0  - Memory needed per MO         ...   0.0 MB
Operator 0  - Number of orbitals per batch ... 4
Operator 0  - Number of batches            ... 1

OPERATOR  0   PASS   0:  MOs     1 ...    4
  Reading integrals       ... ok
  Internal MO   3

Operator 1  - window                       ... (  1-  2)x(  3- 30)
Operator 1  - Memory available             ...  2000 MB
Operator 1  - Memory needed per MO         ...   0.0 MB
Operator 1  - Number of orbitals per batch ... 2
Operator 1  - Number of batches            ... 1

OPERATOR  1   PASS   0:  MOs     1 ...    2
  Reading integrals       ... ok
Time spent in pair loops =     0.006 sec
Deleting buffer (Ka|jb)[aa] ...done
Deleting buffer (Ka|jb)[ab] ...done
Deleting buffer (Ka|jb)[ba] ...done
Deleting buffer (Ka|jb)[bb] ...done

Correlation energy components}
 E2 and T2 for alpha/alpha pairs :     -0.030713507 Eh      0.000000000
 E2 and T2 for beta/beta   pairs :     -0.004177065 Eh      0.000000000
 E2 and T2 for alpha/beta  pairs :     -0.106751784 Eh      0.000000000


-----------------------------------------------
 RI-MP2 CORRELATION ENERGY:     -0.141642356 Eh
-----------------------------------------------


---------------------
MP2 DENSITY FORMATION
---------------------

Completing the external part of the density      ... done
Storing the unrelaxed density                    ... done

Calculating G(D)                                 ... done
Completing the Lagrangian                        ... done
Solving the Z-vector equations                   ... 

------------------------------------------------------------------------------
                           ORCA CP-SCF CALCULATION
------------------------------------------------------------------------------

Input orbitals are from        ... o.gbw
Input Perturbation             ... o.pin.tmp
Wavefunction output            ... o.pout.tmp
Perturbation mode              ... Real perturbation
Solver                         ... POPLE
Max. number of iterations      ... 128
Convergence tolerance          ... 1.000e-08
Integral handling              ... Direct
Number of perturbations        ... 1
Number of operators            ... 2
Orbital ranges used for CP-SCF:
 Operator 0:  Orbitals   0...  4  to   5... 30
 Operator 1:  Orbitals   0...  2  to   3... 30
Variables per vector in CP-SCF ... 214
Number of vectors sought       ... 1
     CP-SCF ITERATION   0: 
     CP-SCF ITERATION   1:      0.000001106
     CP-SCF ITERATION   2:      0.000000079
     CP-SCF ITERATION   3:      0.000000007
done
Finalizing the relaxed density                   ... done
Transforming P to the AO basis                   ... done
Storing the relaxed density                      ... done

                *********************************************
                * UNRELAXED MP2 DENSITY POPULATION ANALYSIS *
                *********************************************

------------------------------------------------------------------------------
                           ORCA POPULATION ANALYSIS
------------------------------------------------------------------------------
Input electron density              ... o.pmp2ur
Input spin density                  ... o.rmp2ur
BaseName (.gbw .S,...)              ... o

                    ********************************
                    * MULLIKEN POPULATION ANALYSIS *
                    ********************************

------------------------------------------
MULLIKEN ATOMIC CHARGES AND SPIN DENSITIES
------------------------------------------
   0 O :   -0.000000    2.000000
Sum of atomic charges       :   -0.0000000
Sum of atomic spin densities:    2.0000000

---------------------------------------------------
MULLIKEN REDUCED ORBITAL CHARGES AND SPIN DENSITIES
---------------------------------------------------
CHARGE
  0 O s       :     3.989205  s :     3.989205
      pz      :     1.010254  p :     3.989122
      px      :     1.979412
      py      :     0.999455
      dz2     :     0.003727  d :     0.019783
      dxz     :     0.004099
      dyz     :     0.003295
      dx2y2   :     0.004595
      dxy     :     0.004067
      f0      :     0.000225  f :     0.001890
      f+1     :     0.000305
      f-1     :     0.000163
      f+2     :     0.000273
      f-2     :     0.000258
      f+3     :     0.000333
      f-3     :     0.000333

SPIN
  0 O s       :     0.007133  s :     0.007133
      pz      :     0.981189  p :     1.983332
      px      :     0.010134
      py      :     0.992009
      dz2     :     0.002216  d :     0.008746
      dxz     :     0.001311
      dyz     :     0.002788
      dx2y2   :     0.001094
      dxy     :     0.001338
      f0      :     0.000104  f :     0.000789
      f+1     :     0.000118
      f-1     :     0.000089
      f+2     :     0.000117
      f-2     :     0.000099
      f+3     :     0.000130
      f-3     :     0.000131


                     *******************************
                     * LOEWDIN POPULATION ANALYSIS *
                     *******************************

-----------------------------------------
LOEWDIN ATOMIC CHARGES AND SPIN DENSITIES
-----------------------------------------
   0 O :   -0.000000    2.000000

--------------------------------------------------
LOEWDIN REDUCED ORBITAL CHARGES AND SPIN DENSITIES
--------------------------------------------------
CHARGE
  0 O s       :     3.989205  s :     3.989205
      pz      :     1.010254  p :     3.989122
      px      :     1.979412
      py      :     0.999455
      dz2     :     0.003727  d :     0.019783
      dxz     :     0.004099
      dyz     :     0.003295
      dx2y2   :     0.004595
      dxy     :     0.004067
      f0      :     0.000225  f :     0.001890
      f+1     :     0.000305
      f-1     :     0.000163
      f+2     :     0.000273
      f-2     :     0.000258
      f+3     :     0.000333
      f-3     :     0.000333

SPIN
  0 O s       :     0.007133  s :     0.007133
      pz      :     0.981189  p :     1.983332
      px      :     0.010134
      py      :     0.992009
      dz2     :     0.002216  d :     0.008746
      dxz     :     0.001311
      dyz     :     0.002788
      dx2y2   :     0.001094
      dxy     :     0.001338
      f0      :     0.000104  f :     0.000789
      f+1     :     0.000118
      f-1     :     0.000089
      f+2     :     0.000117
      f-2     :     0.000099
      f+3     :     0.000130
      f-3     :     0.000131


                      *****************************
                      * MAYER POPULATION ANALYSIS *
                      *****************************

  NA   - Mulliken gross atomic population
  ZA   - Total nuclear charge
  QA   - Mulliken gross atomic charge
  VA   - Mayer's total valence
  BVA  - Mayer's bonded valence
  FA   - Mayer's free valence

  ATOM       NA         ZA         QA         VA         BVA        FA
  0 O      8.0000     8.0000    -0.0000     2.1913     0.0000     2.1913




                *******************************************
                * RELAXED MP2 DENSITY POPULATION ANALYSIS *
                *******************************************

------------------------------------------------------------------------------
                           ORCA POPULATION ANALYSIS
------------------------------------------------------------------------------
Input electron density              ... o.pmp2re
Input spin density                  ... o.rmp2re
BaseName (.gbw .S,...)              ... o

                    ********************************
                    * MULLIKEN POPULATION ANALYSIS *
                    ********************************

------------------------------------------
MULLIKEN ATOMIC CHARGES AND SPIN DENSITIES
------------------------------------------
   0 O :   -0.000000    2.000000
Sum of atomic charges       :   -0.0000000
Sum of atomic spin densities:    2.0000000

---------------------------------------------------
MULLIKEN REDUCED ORBITAL CHARGES AND SPIN DENSITIES
---------------------------------------------------
CHARGE
  0 O s       :     3.989853  s :     3.989853
      pz      :     1.010255  p :     3.989127
      px      :     1.979416
      py      :     0.999456
      dz2     :     0.003575  d :     0.019134
      dxz     :     0.004078
      dyz     :     0.003295
      dx2y2   :     0.004120
      dxy     :     0.004067
      f0      :     0.000225  f :     0.001885
      f+1     :     0.000304
      f-1     :     0.000163
      f+2     :     0.000273
      f-2     :     0.000258
      f+3     :     0.000330
      f-3     :     0.000332

SPIN
  0 O s       :     0.006735  s :     0.006735
      pz      :     0.981190  p :     1.983332
      px      :     0.010133
      py      :     0.992010
      dz2     :     0.002309  d :     0.009144
      dxz     :     0.001324
      dyz     :     0.002788
      dx2y2   :     0.001386
      dxy     :     0.001338
      f0      :     0.000104  f :     0.000789
      f+1     :     0.000119
      f-1     :     0.000089
      f+2     :     0.000117
      f-2     :     0.000099
      f+3     :     0.000130
      f-3     :     0.000131


                     *******************************
                     * LOEWDIN POPULATION ANALYSIS *
                     *******************************

-----------------------------------------
LOEWDIN ATOMIC CHARGES AND SPIN DENSITIES
-----------------------------------------
   0 O :   -0.000000    2.000000

--------------------------------------------------
LOEWDIN REDUCED ORBITAL CHARGES AND SPIN DENSITIES
--------------------------------------------------
CHARGE
  0 O s       :     3.989853  s :     3.989853
      pz      :     1.010255  p :     3.989127
      px      :     1.979416
      py      :     0.999456
      dz2     :     0.003575  d :     0.019134
      dxz     :     0.004078
      dyz     :     0.003295
      dx2y2   :     0.004120
      dxy     :     0.004067
      f0      :     0.000225  f :     0.001885
      f+1     :     0.000304
      f-1     :     0.000163
      f+2     :     0.000273
      f-2     :     0.000258
      f+3     :     0.000330
      f-3     :     0.000332

SPIN
  0 O s       :     0.006735  s :     0.006735
      pz      :     0.981190  p :     1.983332
      px      :     0.010133
      py      :     0.992010
      dz2     :     0.002309  d :     0.009144
      dxz     :     0.001324
      dyz     :     0.002788
      dx2y2   :     0.001386
      dxy     :     0.001338
      f0      :     0.000104  f :     0.000789
      f+1     :     0.000119
      f-1     :     0.000089
      f+2     :     0.000117
      f-2     :     0.000099
      f+3     :     0.000130
      f-3     :     0.000131


                      *****************************
                      * MAYER POPULATION ANALYSIS *
                      *****************************

  NA   - Mulliken gross atomic population
  ZA   - Total nuclear charge
  QA   - Mulliken gross atomic charge
  VA   - Mayer's total valence
  BVA  - Mayer's bonded valence
  FA   - Mayer's free valence

  ATOM       NA         ZA         QA         VA         BVA        FA
  0 O      8.0000     8.0000    -0.0000     2.1854     0.0000     2.1854




-------
TIMINGS
-------

Total time                :    1.192 sec
Integral trafo            :    0.193 sec ( 16.2%)
FC preparation            :    0.001 sec (  0.0%)
I/O of integrals          :    0.000 sec (  0.0%)
K(i,j) Operators          :    0.000 sec (  0.0%)
T(i,j) pair energies      :    0.000 sec (  0.0%)
V-calculation             :    0.006 sec (  0.5%)
V**(-1/2)                 :    0.000 sec (  0.0%)
Gamma(ia|P)               :    0.000 sec (  0.0%)
Gamma-Trafo               :    0.000 sec (  0.0%)
D(virtual)                :    0.000 sec (  0.0%)
D(internal)               :    0.000 sec (  0.0%)
W(virtual)                :    0.000 sec (  0.0%)
W(internal)               :    0.000 sec (  0.0%)
L(virtual)                :    0.004 sec (  0.4%)
L(internal)               :    0.000 sec (  0.0%)
G(D)                      :    0.204 sec ( 17.1%)
G(Z)                      :    0.000 sec (  0.0%)
Z-Vector Solution         :    0.759 sec ( 63.7%)
3-Index Derivative        :    0.000 sec (  0.0%)
2-Index Derivative        :    0.000 sec (  0.0%)
Separable Gradient (RIJ)  :    0.000 sec (  0.0%)
Separable Gradient (X)    :    0.000 sec (  0.0%)


---------------------------------------
MP2 TOTAL ENERGY:      -74.957264929 Eh
---------------------------------------

-------------------------   --------------------
FINAL SINGLE POINT ENERGY       -74.957264928663
-------------------------   --------------------


                            ***************************************
                            *     ORCA property calculations      *
                            ***************************************

                                    ---------------------
                                    Active property flags
                                    ---------------------
   (+) Dipole Moment


------------------------------------------------------------------------------
                       ORCA ELECTRIC PROPERTIES CALCULATION
------------------------------------------------------------------------------

Dipole Moment Calculation                       ... on
Quadrupole Moment Calculation                   ... off
Polarizability Calculation                      ... off
GBWName                                         ... o.gbw
Electron density file                           ... o.scfp.tmp

-------------
DIPOLE MOMENT
-------------
                                X             Y             Z
Electronic contribution:      0.00000       0.00000      -0.00000
Nuclear contribution   :      0.00000       0.00000       0.00000
                        -----------------------------------------
Total Dipole Moment    :      0.00000       0.00000      -0.00000
                        -----------------------------------------
Magnitude (a.u.)       :      0.00000
Magnitude (Debye)      :      0.00000


                         *** MP2 UNRELAXED DENSITY ***

------------------------------------------------------------------------------
                       ORCA ELECTRIC PROPERTIES CALCULATION
------------------------------------------------------------------------------

Dipole Moment Calculation                       ... on
Quadrupole Moment Calculation                   ... off
Polarizability Calculation                      ... off
GBWName                                         ... o.gbw
Electron density file                           ... o.pmp2ur

-------------
DIPOLE MOMENT
-------------
                                X             Y             Z
Electronic contribution:      0.00000       0.00000      -0.00000
Nuclear contribution   :      0.00000       0.00000       0.00000
                        -----------------------------------------
Total Dipole Moment    :      0.00000       0.00000      -0.00000
                        -----------------------------------------
Magnitude (a.u.)       :      0.00000
Magnitude (Debye)      :      0.00000


                           *** MP2 RELAXED DENSITY ***

------------------------------------------------------------------------------
                       ORCA ELECTRIC PROPERTIES CALCULATION
------------------------------------------------------------------------------

Dipole Moment Calculation                       ... on
Quadrupole Moment Calculation                   ... off
Polarizability Calculation                      ... off
GBWName                                         ... o.gbw
Electron density file                           ... o.pmp2re

-------------
DIPOLE MOMENT
-------------
                                X             Y             Z
Electronic contribution:      0.00000       0.00000      -0.00000
Nuclear contribution   :      0.00000       0.00000       0.00000
                        -----------------------------------------
Total Dipole Moment    :      0.00000       0.00000      -0.00000
                        -----------------------------------------
Magnitude (a.u.)       :      0.00000
Magnitude (Debye)      :      0.00000


Timings for individual modules:

Sum of individual times         ...        2.804 sec (=   0.047 min)
GTO integral calculation        ...        0.116 sec (=   0.002 min)   4.1 %
SCF iterations                  ...        1.385 sec (=   0.023 min)  49.4 %
MP2 module                      ...        1.302 sec (=   0.022 min)  46.4 %
                             ****ORCA TERMINATED NORMALLY****
TOTAL RUN TIME: 0 days 0 hours 0 minutes 3 seconds 109 msec
