
                                 *****************
                                 * O   R   C   A *
                                 *****************

           --- An Ab Initio, DFT and Semiempirical electronic structure package ---

                  #######################################################
                  #                        -***-                        #
                  #  Department of molecular theory and spectroscopy    #
                  #              Directorship: Frank Neese              #
                  # Max Planck Institute for Chemical Energy Conversion #
                  #                  D-45470 Muelheim/Ruhr              #
                  #                       Germany                       #
                  #                                                     #
                  #                  All rights reserved                #
                  #                        -***-                        #
                  #######################################################


                         Program Version 3.0.3 - RELEASE   -


 With contributions from (in alphabetic order):
   Ute Becker             : Parallelization
   Dmytro Bykov           : SCF Hessian
   Dmitry Ganyushin       : Spin-Orbit,Spin-Spin,Magnetic field MRCI
   Andreas Hansen         : Spin unrestricted coupled pair/coupled cluster methods
   Dimitrios Liakos       : Extrapolation schemes; parallel MDCI
   Robert Izsak           : Overlap fitted RIJCOSX, COSX-SCS-MP3
   Christian Kollmar      : KDIIS, OOCD, Brueckner-CCSD(T), CCSD density
   Simone Kossmann        : Meta GGA functionals, TD-DFT gradient, OOMP2, MP2 Hessian
   Taras Petrenko         : DFT Hessian,TD-DFT gradient, ASA and ECA modules, normal mode analysis, Resonance Raman, ABS, FL, XAS/XES, NRVS
   Christoph Reimann      : Effective Core Potentials
   Michael Roemelt        : Restricted open shell CIS
   Christoph Riplinger    : Improved optimizer, TS searches, QM/MM, DLPNO-CCSD
   Barbara Sandhoefer     : DKH picture change effects
   Igor Schapiro          : Molecular dynamics
   Kantharuban Sivalingam : CASSCF convergence, NEVPT2
   Boris Wezisla          : Elementary symmetry handling
   Frank Wennmohs         : Technical directorship


 We gratefully acknowledge several colleagues who have allowed us to
 interface, adapt or use parts of their codes:
   Stefan Grimme, W. Hujo, H. Kruse, T. Risthaus : VdW corrections, initial TS optimization,
                                                   DFT functionals, gCP
   Ed Valeev                                     : LibInt (2-el integral package), F12 methods
   Garnet Chan, S. Sharma, R. Olivares           : DMRG
   Ulf Ekstrom                                   : XCFun DFT Library
   Mihaly Kallay                                 : mrcc  (arbitrary order and MRCC methods)
   Andreas Klamt, Michael Diedenhofen            : otool_cosmo (COSMO solvation model)
   Frank Weinhold                                : gennbo (NPA and NBO analysis)
   Christopher J. Cramer and Donald G. Truhlar   : smd solvation model


 Your calculation uses the libint2 library for the computation of 2-el integrals
 For citations please refer to: http://libint.valeyev.net

 This ORCA versions uses:
   CBLAS   interface :  Fast vector & matrix operations
   LAPACKE interface :  Fast linear algebra routines
   SCALAPACK package :  Parallel linear algebra routines


Your calculation utilizes the basis: Ahlrichs-TZV
Cite in your paper:
H - Kr: A. Schaefer, H. Horn and R. Ahlrichs, J. Chem. Phys. 97, 2571 (1992).

The def2-TZV basis will be loaded
Cite in your paper:
 	F. Weigend, R. Ahlrichs, Phys. Chem. Chem. Phys. 2005, 7, 3297.

================================================================================
                                        WARNINGS
                       Please study these warnings very carefully!
================================================================================
Now building the actual basis set

WARNING: your system is open-shell and RHF/RKS was chosen
  ===> : WILL SWITCH to UHF/UKS



INFO   : the flag for use of LIBINT has been found!

================================================================================
                                       INPUT FILE
================================================================================
NAME = s.inp
|  1> ! RI-MP2 RIJK def2-TZVP def2-TZVP/C def2-TZVP/JK TIGHTSCF
|  2> % maxcore 2000
|  3> % mp2 density relaxed end
|  4> *xyz 0 3
|  5>  S       0.0000000     0.0000000     0.000000000
|  6> *
|  7> 
|  8>                          ****END OF INPUT****
================================================================================

                       ****************************
                       * Single Point Calculation *
                       ****************************

---------------------------------
CARTESIAN COORDINATES (ANGSTROEM)
---------------------------------
  S      0.000000    0.000000    0.000000

----------------------------
CARTESIAN COORDINATES (A.U.)
----------------------------
  NO LB      ZA    FRAG    MASS        X           Y           Z
   0 S    16.0000    0    32.060          0.000000000000000          0.000000000000000          0.000000000000000

--------------------------------
INTERNAL COORDINATES (ANGSTROEM)
--------------------------------
 S      0   0   0   0.000000     0.000     0.000

---------------------------
INTERNAL COORDINATES (A.U.)
---------------------------
 S      0   0   0   0.000000     0.000     0.000

---------------------
BASIS SET INFORMATION
---------------------
There are 1 groups of distinct atoms

 Group   1 Type S   : 14s9p3d1f contracted to 5s5p2d1f pattern {73211/51111/21/1}

Atom   0S    basis set group =>   1
-------------------------------
AUXILIARY BASIS SET INFORMATION
-------------------------------
There are 1 groups of distinct atoms

 Group   1 Type S   : 16s12p10d4f1g contracted to 13s11p9d4f1g pattern {4111111111111/21111111111/211111111/1111/1}

Atom   0S    basis set group =>   1
------------------------------------------------------------------------------
                           ORCA GTO INTEGRAL CALCULATION
                           -- RI-GTO INTEGRALS CHOSEN --
------------------------------------------------------------------------------

                         BASIS SET STATISTICS AND STARTUP INFO

Gaussian basis set:
 # of primitive gaussian shells          ...   27
 # of primitive gaussian functions       ...   63
 # of contracted shells                  ...   13
 # of contracted basis functions         ...   37
 Highest angular momentum                ...    3
 Maximum contraction depth               ...    7
Auxiliary gaussian basis set:
 # of primitive gaussian shells          ...   43
 # of primitive gaussian functions       ...  139
 # of contracted shells                  ...   38
 # of contracted aux-basis functions     ...  128
 Highest angular momentum                ...    4
 Maximum contraction depth               ...    4
Ratio of auxiliary to basis functions    ...  3.46
Integral package used                  ... LIBINT
 One Electron integrals                  ... done
 Ordering auxiliary basis shells         ... done
 Integral threshhold             Thresh  ...  2.500e-11
 Primitive cut-off               TCut    ...  2.500e-12
 Pre-screening matrix                    ... done
 Shell pair data                         ... 
 Ordering of the shell pairs             ... done (   0.000 sec) 91 of 91 pairs
 Determination of significant pairs      ... done (   0.000 sec)
 Creation of shell pair data             ... done (   0.000 sec)
 Storage of shell pair data              ... done (   0.000 sec)
 Shell pair data done in (   0.000 sec)
 Computing two index integrals           ... done
 Cholesky decomposition of the V-matrix  ... done


Timings:
 Total evaluation time                   ...   0.111 sec (  0.002 min)
 One electron matrix time                ...   0.003 sec (  0.000 min) =  2.6%
 Schwartz matrix evaluation time         ...   0.083 sec (  0.001 min) = 75.3%
 Two index repulsion integral time       ...   0.000 sec (  0.000 min) =  0.3%
 Cholesky decomposition of V             ...   0.000 sec (  0.000 min) =  0.3%
 Three index repulsion integral time     ...   0.000 sec (  0.000 min) =  0.0%

-------------------------------------------------------------------------------
                                 ORCA SCF
-------------------------------------------------------------------------------

------------
SCF SETTINGS
------------
Hamiltonian:
 Ab initio Hamiltonian  Method          .... Hartree-Fock(GTOs)
 RI-approximation to the Coulomb term is turned on
   Number of auxiliary basis functions  .... 128
   RI-JK (J+K treated both via RI)      .... on


General Settings:
 Integral files         IntName         .... s
 Hartree-Fock type      HFTyp           .... UHF
 Total Charge           Charge          ....    0
 Multiplicity           Mult            ....    3
 Number of Electrons    NEL             ....   16
 Basis Dimension        Dim             ....   37
 Nuclear Repulsion      ENuc            ....      0.0000000000 Eh

Convergence Acceleration:
 DIIS                   CNVDIIS         .... on
   Start iteration      DIISMaxIt       ....    12
   Startup error        DIISStart       ....  0.200000
   # of expansion vecs  DIISMaxEq       ....     5
   Bias factor          DIISBfac        ....   1.050
   Max. coefficient     DIISMaxC        ....  10.000
 Newton-Raphson         CNVNR           .... off
 SOSCF                  CNVSOSCF        .... off
 Level Shifting         CNVShift        .... on
   Level shift para.    LevelShift      ....    0.2500
   Turn off err/grad.   ShiftErr        ....    0.0010
 Zerner damping         CNVZerner       .... off
 Static damping         CNVDamp         .... on
   Fraction old density DampFac         ....    0.7000
   Max. Damping (<1)    DampMax         ....    0.9800
   Min. Damping (>=0)   DampMin         ....    0.0000
   Turn off err/grad.   DampErr         ....    0.1000
 Fernandez-Rico         CNVRico         .... off

SCF Procedure:
 Maximum # iterations   MaxIter         ....   125
 SCF integral mode      SCFMode         .... Direct
   Integral package                     .... LIBINT
 Reset frequeny         DirectResetFreq ....    20
 Integral Threshold     Thresh          ....  2.500e-11 Eh
 Primitive CutOff       TCut            ....  2.500e-12 Eh

Convergence Tolerance:
 Convergence Check Mode ConvCheckMode   .... Total+1el-Energy
 Energy Change          TolE            ....  1.000e-08 Eh
 1-El. energy change                    ....  1.000e-05 Eh
 DIIS Error             TolErr          ....  5.000e-07


Diagonalization of the overlap matrix:
Smallest eigenvalue                        ... 4.995e-02
Time for diagonalization                   ...    0.020 sec
Threshold for overlap eigenvalues          ... 1.000e-08
Number of eigenvalues below threshold      ... 0
Time for construction of square roots      ...    0.000 sec
Total time needed                          ...    0.020 sec

-------------------
DFT GRID GENERATION
-------------------

General Integration Accuracy     IntAcc      ...  4.340
Radial Grid Type                 RadialGrid  ... Gauss-Chebyshev
Angular Grid (max. acc.)         AngularGrid ... Lebedev-110
Angular grid pruning method      GridPruning ... 3 (G Style)
Weight generation scheme         WeightScheme... Becke
Basis function cutoff            BFCut       ...    1.0000e-11
Integration weight cutoff        WCut        ...    1.0000e-14
Grids for H and He will be reduced by one unit

# of grid points (after initial pruning)     ...   1806 (   0.0 sec)
# of grid points (after weights+screening)   ...   1806 (   0.0 sec)
Grid point division into batches done        ...    0.0 sec
Reduced shell lists constructed in    0.0 sec

Total number of grid points                  ...     1806
Total number of batches                      ...       29
Average number of points per batch           ...       62
Average number of grid points per atom       ...     1806
Average number of shells per batch           ...    10.70 (82.31%)
Average number of basis functions per batch  ...    32.63 (88.20%)
Average number of large shells per batch     ...    10.30 (96.26%)
Average number of large basis fcns per batch ...    31.37 (96.12%)
Average number of aux-shells per batch       ...    10.70 (28.16%)
Average number of aux functions per batch    ...    32.63 (  inf%)
Maximum spatial batch extension              ...  16.21, 29.83, 29.83 au
Average spatial batch extension              ...   7.35,  8.64,  9.83 au

Time for grid setup =    0.016 sec

------------------------------
INITIAL GUESS: MODEL POTENTIAL
------------------------------
Loading Hartree-Fock densities                     ... done
Calculating cut-offs                               ... done
Setting up the integral package                    ... done
Initializing the effective Hamiltonian             ... done
Starting the Coulomb interaction                   ... done (   0.0 sec)
Reading the grid                                   ... done
Mapping shells                                     ... done
Starting the XC term evaluation                    ... done (   0.0 sec)
Transforming the Hamiltonian                       ... done (   0.0 sec)
Diagonalizing the Hamiltonian                      ... done (   0.0 sec)
Back transforming the eigenvectors                 ... done (   0.0 sec)
Now organizing SCF variables                       ... done
                      ------------------
                      INITIAL GUESS DONE (   0.1 sec)
                      ------------------
--------------
SCF ITERATIONS
--------------
ITER       Energy         Delta-E        Max-DP      RMS-DP      [F,P]     Damp
  0   -397.4816625447   0.000000000000 0.01092285  0.00055463  0.1376852 0.7000
  1   -397.5082706929  -0.026608148253 0.01293726  0.00058986  0.0988339 0.7000
                               ***Turning on DIIS***
  2   -397.5080810851   0.000189607798 0.03737836  0.00165761  0.0688549 0.0000
  3   -397.5025355994   0.005545485697 0.00440646  0.00020096  0.0121776 0.0000
  4   -397.5008015892   0.001734010195 0.00175105  0.00009626  0.0013222 0.0000
  5   -397.4985300908   0.002271498428 0.00176573  0.00007281  0.0003529 0.0000
  6   -397.5015032982  -0.002973207384 0.00066893  0.00002388  0.0001308 0.0000
  7   -397.5019440592  -0.000440760957 0.00014829  0.00000514  0.0000306 0.0000
  8   -397.5019747544  -0.000030695234 0.00001369  0.00000058  0.0000039 0.0000
                            ***DIIS convergence achieved***

               *****************************************************
               *                     SUCCESS                       *
               *           SCF CONVERGED AFTER   9 CYCLES          *
               *****************************************************


----------------
TOTAL SCF ENERGY
----------------

Total Energy       :         -397.50197001 Eh          -10816.57851 eV

Components:
Nuclear Repulsion  :            0.00000000 Eh               0.00000 eV
Electronic Energy  :         -397.50197001 Eh          -10816.57851 eV

One Electron Energy:         -549.39113581 Eh          -14949.69283 eV
Two Electron Energy:          151.88916580 Eh            4133.11432 eV

Virial components:
Potential Energy   :         -795.00012659 Eh          -21633.05325 eV
Kinetic Energy     :          397.49815657 Eh           10816.47474 eV
Virial Ratio       :            2.00000959


---------------
SCF CONVERGENCE
---------------

  Last Energy change         ...    4.7407e-06  Tolerance :   1.0000e-08
  Last MAX-Density change    ...    2.1957e-06  Tolerance :   1.0000e-07
  Last RMS-Density change    ...    1.0043e-07  Tolerance :   5.0000e-09
  Last DIIS Error            ...    5.0143e-07  Tolerance :   5.0000e-07

             **** THE GBW FILE WAS UPDATED (s.gbw) ****
             **** DENSITY FILE WAS UPDATED (s.scfp.tmp) ****
             **** ENERGY FILE WAS UPDATED (s.en.tmp) ****
----------------------
UHF SPIN CONTAMINATION
----------------------

Expectation value of <S**2>     :     2.011965
Ideal value S*(S+1) for S=1.0   :     2.000000
Deviation                       :     0.011965

----------------
ORBITAL ENERGIES
----------------
                 SPIN UP ORBITALS
  NO   OCC          E(Eh)            E(eV) 
   0   1.0000     -92.009914     -2503.7170 
   1   1.0000      -9.011634      -245.2190 
   2   1.0000      -6.704834      -182.4478 
   3   1.0000      -6.704834      -182.4478 
   4   1.0000      -6.684353      -181.8905 
   5   1.0000      -0.988360       -26.8946 
   6   1.0000      -0.485386       -13.2080 
   7   1.0000      -0.485386       -13.2080 
   8   1.0000      -0.414254       -11.2724 
   9   0.0000       0.379156        10.3174 
  10   0.0000       0.379156        10.3174 
  11   0.0000       0.410705        11.1758 
  12   0.0000       0.453918        12.3517 
  13   0.0000       0.453918        12.3517 
  14   0.0000       0.495074        13.4717 
  15   0.0000       0.495074        13.4717 
  16   0.0000       0.510689        13.8966 
  17   0.0000       0.542117        14.7518 
  18   0.0000       1.699074        46.2342 
  19   0.0000       1.699074        46.2342 
  20   0.0000       1.734334        47.1936 
  21   0.0000       1.734334        47.1936 
  22   0.0000       1.747285        47.5460 
  23   0.0000       1.849306        50.3222 
  24   0.0000       1.849306        50.3222 
  25   0.0000       1.883656        51.2569 
  26   0.0000       1.883656        51.2569 
  27   0.0000       1.904847        51.8335 
  28   0.0000       1.904847        51.8335 
  29   0.0000       1.912162        52.0326 
  30   0.0000       2.023416        55.0600 
  31   0.0000       2.023416        55.0600 
  32   0.0000       2.073211        56.4149 
  33   0.0000       9.443062       256.9588 
  34   0.0000       9.443062       256.9588 
  35   0.0000       9.476721       257.8747 
  36   0.0000      18.077244       491.9068 

                 SPIN DOWN ORBITALS
  NO   OCC          E(Eh)            E(eV) 
   0   1.0000     -91.990206     -2503.1808 
   1   1.0000      -8.992873      -244.7085 
   2   1.0000      -6.674014      -181.6092 
   3   1.0000      -6.657588      -181.1622 
   4   1.0000      -6.657588      -181.1622 
   5   1.0000      -0.773252       -21.0412 
   6   1.0000      -0.378326       -10.2948 
   7   0.0000       0.012940         0.3521 
   8   0.0000       0.012940         0.3521 
   9   0.0000       0.421651        11.4737 
  10   0.0000       0.458375        12.4730 
  11   0.0000       0.458375        12.4730 
  12   0.0000       0.564772        15.3682 
  13   0.0000       0.572991        15.5919 
  14   0.0000       0.572991        15.5919 
  15   0.0000       0.592262        16.1163 
  16   0.0000       0.603160        16.4128 
  17   0.0000       0.603160        16.4128 
  18   0.0000       1.763896        47.9981 
  19   0.0000       1.763896        47.9981 
  20   0.0000       1.769237        48.1434 
  21   0.0000       1.769237        48.1434 
  22   0.0000       1.770860        48.1876 
  23   0.0000       1.942285        52.8523 
  24   0.0000       1.942285        52.8523 
  25   0.0000       1.946134        52.9570 
  26   0.0000       1.946134        52.9570 
  27   0.0000       1.947967        53.0069 
  28   0.0000       1.947967        53.0069 
  29   0.0000       1.948498        53.0213 
  30   0.0000       2.088440        56.8293 
  31   0.0000       2.099679        57.1352 
  32   0.0000       2.099679        57.1352 
  33   0.0000       9.485760       258.1206 
  34   0.0000       9.486291       258.1351 
  35   0.0000       9.486291       258.1351 
  36   0.0000      18.105332       492.6711 

                    ********************************
                    * MULLIKEN POPULATION ANALYSIS *
                    ********************************

--------------------------------------------
MULLIKEN ATOMIC CHARGES AND SPIN POPULATIONS
--------------------------------------------
   0 S :   -0.000000    2.000000
Sum of atomic charges         :   -0.0000000
Sum of atomic spin populations:    2.0000000

-----------------------------------------------------
MULLIKEN REDUCED ORBITAL CHARGES AND SPIN POPULATIONS
-----------------------------------------------------
CHARGE
  0 S s       :     5.994499  s :     5.994499
      pz      :     3.318080  p :     9.998973
      px      :     3.363352
      py      :     3.317541
      dz2     :     0.000003  d :     0.005501
      dxz     :     0.001911
      dyz     :     0.001670
      dx2y2   :     0.000009
      dxy     :     0.001908
      f0      :     0.000099  f :     0.001027
      f+1     :     0.000141
      f-1     :     0.000124
      f+2     :     0.000153
      f-2     :     0.000258
      f+3     :     0.000126
      f-3     :     0.000128

SPIN
  0 S s       :     0.001731  s :     0.001731
      pz      :     0.681258  p :     1.999026
      px      :     0.635971
      py      :     0.681797
      dz2     :    -0.000001  d :    -0.001731
      dxz     :    -0.000601
      dyz     :    -0.000526
      dx2y2   :    -0.000003
      dxy     :    -0.000600
      f0      :     0.000090  f :     0.000974
      f+1     :     0.000138
      f-1     :     0.000121
      f+2     :     0.000152
      f-2     :     0.000229
      f+3     :     0.000122
      f-3     :     0.000121


                     *******************************
                     * LOEWDIN POPULATION ANALYSIS *
                     *******************************

-------------------------------------------
LOEWDIN ATOMIC CHARGES AND SPIN POPULATIONS
-------------------------------------------
   0 S :   -0.000000    2.000000

----------------------------------------------------
LOEWDIN REDUCED ORBITAL CHARGES AND SPIN POPULATIONS
----------------------------------------------------
CHARGE
  0 S s       :     5.994499  s :     5.994499
      pz      :     3.318080  p :     9.998973
      px      :     3.363352
      py      :     3.317541
      dz2     :     0.000003  d :     0.005501
      dxz     :     0.001911
      dyz     :     0.001670
      dx2y2   :     0.000009
      dxy     :     0.001908
      f0      :     0.000099  f :     0.001027
      f+1     :     0.000141
      f-1     :     0.000124
      f+2     :     0.000153
      f-2     :     0.000258
      f+3     :     0.000126
      f-3     :     0.000128

SPIN
  0 S s       :     0.001731  s :     0.001731
      pz      :     0.681258  p :     1.999026
      px      :     0.635971
      py      :     0.681797
      dz2     :    -0.000001  d :    -0.001731
      dxz     :    -0.000601
      dyz     :    -0.000526
      dx2y2   :    -0.000003
      dxy     :    -0.000600
      f0      :     0.000090  f :     0.000974
      f+1     :     0.000138
      f-1     :     0.000121
      f+2     :     0.000152
      f-2     :     0.000229
      f+3     :     0.000122
      f-3     :     0.000121


                      *****************************
                      * MAYER POPULATION ANALYSIS *
                      *****************************

  NA   - Mulliken gross atomic population
  ZA   - Total nuclear charge
  QA   - Mulliken gross atomic charge
  VA   - Mayer's total valence
  BVA  - Mayer's bonded valence
  FA   - Mayer's free valence

  ATOM       NA         ZA         QA         VA         BVA        FA
  0 S     16.0000    16.0000    -0.0000     2.0239     0.0000     2.0239

  Mayer bond orders larger than 0.1


-------
TIMINGS
-------

Total SCF time: 0 days 0 hours 0 min 1 sec 

Total time                  ....       1.058 sec
Sum of individual times     ....       1.185 sec  (112.0%)

Fock matrix formation       ....       1.038 sec  ( 98.1%)
Diagonalization             ....       0.013 sec  (  1.2%)
Density matrix formation    ....       0.000 sec  (  0.0%)
Population analysis         ....       0.001 sec  (  0.1%)
Initial guess               ....       0.114 sec  ( 10.8%)
Orbital Transformation      ....       0.000 sec  (  0.0%)
Orbital Orthonormalization  ....       0.000 sec  (  0.0%)
DIIS solution               ....       0.002 sec  (  0.2%)

   <<< Auxbasis replaced with s.AUXC.tmp (Dim=113) >>> 


------------------------------------------------------------------------------
                              ORCA MP2 CALCULATION
------------------------------------------------------------------------------

Freezing NCore=10 chemical core electrons

   <<< Use J-auxbasis for calculation of Separable RI-J derivative contributions s.AUXJ.tmp (Dim=128) >>> 


---------------------
RI-MP2 ENERGY+DENSITY
---------------------
Dimension of the basis                    ...   37
Memory devoted to MP2                     ... 2000 MB   
Data format for buffers                   ... DOUBLE
Compression type for matrix containers    ... UNCOMPRESSED
Overall scaling of the MP2 energy         ...   1.000e+00 Eh
Calculating two index integrals           ... done (    0.006 sec)
Cholesky decomposition of V**-1           ... done (    0.001 sec)

-----------------
RI-TRANSFORMATION (AUX index driven)
-----------------

Dimension of the orbital-basis         ... 37
Dimension of the aux-basis             ... 113
Transformation of internal MOs         ...    0-   8
Transformation of internal/external MOs...    0-   8 to    9-  36
Number Format for Storage              ... Double (8 Byte)
Integral mode                          ... Direct

First Phase: integral generation and transformation of MO indices
  Aux angular momentum 0               ... done (    0.001 sec)
  Aux angular momentum 1               ... done (    0.001 sec)
  Aux angular momentum 2               ... done (    0.002 sec)
  Aux angular momentum 3               ... done (    0.002 sec)
  Aux angular momentum 4               ... done (    0.001 sec)
Closing buffer VIJ ( 0.00 GB; CompressionRatio= 1.74)
Closing buffer VIA ( 0.00 GB; CompressionRatio= 0.99)
  Phase 1 completed in     0.090 sec
Second Phase: sorting and transformation of aux index

IJ-Transformation
Memory available                       ... 2000 MB 
Max. # MO pairs treated in a batch     ... 9    
# of internal orbitals                 ... 9
# batches for internal orbitals        ... 1
Closing buffer IJV ( 0.00 GB; CompressionRatio= 0.99)
(ij|v) transformation done in     0.001 sec

IA-Transformation
Memory available                       ... 2000 MB 
Max. # MO pairs treated in a batch     ... 9    
# of internal orbitals                 ... 9
# batches for internal orbitals        ... 1
Closing buffer IAV ( 0.00 GB; CompressionRatio= 1.00)
(ia|v) transformation done in     0.001 sec

  Phase 2 completed in     0.002 sec
RI-Integral transformation completed in     0.092 sec

-----------------
RI-TRANSFORMATION (AUX index driven)
-----------------

Dimension of the orbital-basis         ... 37
Dimension of the aux-basis             ... 113
Transformation of internal MOs         ...    0-   6
Transformation of internal/external MOs...    0-   6 to    7-  36
Number Format for Storage              ... Double (8 Byte)
Integral mode                          ... Direct

First Phase: integral generation and transformation of MO indices
  Aux angular momentum 0               ... done (    0.001 sec)
  Aux angular momentum 1               ... done (    0.001 sec)
  Aux angular momentum 2               ... done (    0.002 sec)
  Aux angular momentum 3               ... done (    0.002 sec)
  Aux angular momentum 4               ... done (    0.001 sec)
Closing buffer VIJ ( 0.00 GB; CompressionRatio= 1.66)
Closing buffer VIA ( 0.00 GB; CompressionRatio= 0.99)
  Phase 1 completed in     0.090 sec
Second Phase: sorting and transformation of aux index

IJ-Transformation
Memory available                       ... 2000 MB 
Max. # MO pairs treated in a batch     ... 7    
# of internal orbitals                 ... 7
# batches for internal orbitals        ... 1
Closing buffer IJV ( 0.00 GB; CompressionRatio= 0.99)
(ij|v) transformation done in     0.000 sec

IA-Transformation
Memory available                       ... 2000 MB 
Max. # MO pairs treated in a batch     ... 7    
# of internal orbitals                 ... 7
# batches for internal orbitals        ... 1
Closing buffer IAV ( 0.00 GB; CompressionRatio= 1.00)
(ia|v) transformation done in     0.001 sec

  Phase 2 completed in     0.002 sec
RI-Integral transformation completed in     0.092 sec
Opening buffers                              ... done
Frozen core precalculation                   ... done

Starting loop over batches of integrals:

Operator 0  - window                       ... (  5-  8)x(  9- 36)
Operator 0  - Memory available             ...  2000 MB
Operator 0  - Memory needed per MO         ...   0.0 MB
Operator 0  - Number of orbitals per batch ... 4
Operator 0  - Number of batches            ... 1

OPERATOR  0   PASS   0:  MOs     5 ...    8
  Reading integrals       ... ok
  Internal MO   7

Operator 1  - window                       ... (  5-  6)x(  7- 36)
Operator 1  - Memory available             ...  2000 MB
Operator 1  - Memory needed per MO         ...   0.1 MB
Operator 1  - Number of orbitals per batch ... 2
Operator 1  - Number of batches            ... 1

OPERATOR  1   PASS   0:  MOs     5 ...    6
  Reading integrals       ... ok
Time spent in pair loops =     0.013 sec
Deleting buffer (Ka|jb)[aa] ...done
Deleting buffer (Ka|jb)[ab] ...done
Deleting buffer (Ka|jb)[ba] ...done
Deleting buffer (Ka|jb)[bb] ...done

Correlation energy components}
 E2 and T2 for alpha/alpha pairs :     -0.023589648 Eh      0.000000000
 E2 and T2 for beta/beta   pairs :     -0.003073233 Eh      0.000000000
 E2 and T2 for alpha/beta  pairs :     -0.087496994 Eh      0.000000000


-----------------------------------------------
 RI-MP2 CORRELATION ENERGY:     -0.114159875 Eh
-----------------------------------------------


---------------------
MP2 DENSITY FORMATION
---------------------

Completing the external part of the density      ... done
Storing the unrelaxed density                    ... done

Calculating G(D)                                 ... done
Completing the Lagrangian                        ... done
Solving the Z-vector equations                   ... 

------------------------------------------------------------------------------
                           ORCA CP-SCF CALCULATION
------------------------------------------------------------------------------

Input orbitals are from        ... s.gbw
Input Perturbation             ... s.pin.tmp
Wavefunction output            ... s.pout.tmp
Perturbation mode              ... Real perturbation
Solver                         ... POPLE
Max. number of iterations      ... 128
Convergence tolerance          ... 1.000e-08
Integral handling              ... Direct
Number of perturbations        ... 1
Number of operators            ... 2
Orbital ranges used for CP-SCF:
 Operator 0:  Orbitals   0...  8  to   9... 36
 Operator 1:  Orbitals   0...  6  to   7... 36
Variables per vector in CP-SCF ... 462
Number of vectors sought       ... 1
     CP-SCF ITERATION   0: 
     CP-SCF ITERATION   1:      0.000007230
     CP-SCF ITERATION   2:      0.000000449
     CP-SCF ITERATION   3:      0.000000023
     CP-SCF ITERATION   4:      0.000000001
done
Finalizing the relaxed density                   ... done
Transforming P to the AO basis                   ... done
Storing the relaxed density                      ... done

                *********************************************
                * UNRELAXED MP2 DENSITY POPULATION ANALYSIS *
                *********************************************

------------------------------------------------------------------------------
                           ORCA POPULATION ANALYSIS
------------------------------------------------------------------------------
Input electron density              ... s.pmp2ur
Input spin density                  ... s.rmp2ur
BaseName (.gbw .S,...)              ... s

                    ********************************
                    * MULLIKEN POPULATION ANALYSIS *
                    ********************************

------------------------------------------
MULLIKEN ATOMIC CHARGES AND SPIN DENSITIES
------------------------------------------
   0 S :   -0.000000    2.000000
Sum of atomic charges       :   -0.0000000
Sum of atomic spin densities:    2.0000000

---------------------------------------------------
MULLIKEN REDUCED ORBITAL CHARGES AND SPIN DENSITIES
---------------------------------------------------
CHARGE
  0 S s       :     5.971421  s :     5.971421
      pz      :     3.305342  p :     9.959615
      px      :     3.349456
      py      :     3.304817
      dz2     :     0.011755  d :     0.062387
      dxz     :     0.013025
      dyz     :     0.012733
      dx2y2   :     0.011852
      dxy     :     0.013021
      f0      :     0.000905  f :     0.006578
      f+1     :     0.000942
      f-1     :     0.000911
      f+2     :     0.000944
      f-2     :     0.001004
      f+3     :     0.000936
      f-3     :     0.000937

SPIN
  0 S s       :     0.016083  s :     0.016083
      pz      :     0.666566  p :     1.955744
      px      :     0.622083
      py      :     0.667095
      dz2     :     0.005393  d :     0.025272
      dxz     :     0.004785
      dyz     :     0.005048
      dx2y2   :     0.005258
      dxy     :     0.004788
      f0      :     0.000381  f :     0.002902
      f+1     :     0.000415
      f-1     :     0.000403
      f+2     :     0.000425
      f-2     :     0.000470
      f+3     :     0.000404
      f-3     :     0.000403


                     *******************************
                     * LOEWDIN POPULATION ANALYSIS *
                     *******************************

-----------------------------------------
LOEWDIN ATOMIC CHARGES AND SPIN DENSITIES
-----------------------------------------
   0 S :   -0.000000    2.000000

--------------------------------------------------
LOEWDIN REDUCED ORBITAL CHARGES AND SPIN DENSITIES
--------------------------------------------------
CHARGE
  0 S s       :     5.971421  s :     5.971421
      pz      :     3.305342  p :     9.959615
      px      :     3.349456
      py      :     3.304817
      dz2     :     0.011755  d :     0.062387
      dxz     :     0.013025
      dyz     :     0.012733
      dx2y2   :     0.011852
      dxy     :     0.013021
      f0      :     0.000905  f :     0.006578
      f+1     :     0.000942
      f-1     :     0.000911
      f+2     :     0.000944
      f-2     :     0.001004
      f+3     :     0.000936
      f-3     :     0.000937

SPIN
  0 S s       :     0.016083  s :     0.016083
      pz      :     0.666566  p :     1.955744
      px      :     0.622083
      py      :     0.667095
      dz2     :     0.005393  d :     0.025272
      dxz     :     0.004785
      dyz     :     0.005048
      dx2y2   :     0.005258
      dxy     :     0.004788
      f0      :     0.000381  f :     0.002902
      f+1     :     0.000415
      f-1     :     0.000403
      f+2     :     0.000425
      f-2     :     0.000470
      f+3     :     0.000404
      f-3     :     0.000403


                      *****************************
                      * MAYER POPULATION ANALYSIS *
                      *****************************

  NA   - Mulliken gross atomic population
  ZA   - Total nuclear charge
  QA   - Mulliken gross atomic charge
  VA   - Mayer's total valence
  BVA  - Mayer's bonded valence
  FA   - Mayer's free valence

  ATOM       NA         ZA         QA         VA         BVA        FA
  0 S     16.0000    16.0000    -0.0000     2.3167     0.0000     2.3167




                *******************************************
                * RELAXED MP2 DENSITY POPULATION ANALYSIS *
                *******************************************

------------------------------------------------------------------------------
                           ORCA POPULATION ANALYSIS
------------------------------------------------------------------------------
Input electron density              ... s.pmp2re
Input spin density                  ... s.rmp2re
BaseName (.gbw .S,...)              ... s

                    ********************************
                    * MULLIKEN POPULATION ANALYSIS *
                    ********************************

------------------------------------------
MULLIKEN ATOMIC CHARGES AND SPIN DENSITIES
------------------------------------------
   0 S :   -0.000000    2.000000
Sum of atomic charges       :   -0.0000000
Sum of atomic spin densities:    2.0000000

---------------------------------------------------
MULLIKEN REDUCED ORBITAL CHARGES AND SPIN DENSITIES
---------------------------------------------------
CHARGE
  0 S s       :     5.975495  s :     5.975495
      pz      :     3.305392  p :     9.959769
      px      :     3.349510
      py      :     3.304867
      dz2     :     0.011753  d :     0.058312
      dxz     :     0.011609
      dyz     :     0.011496
      dx2y2   :     0.011846
      dxy     :     0.011608
      f0      :     0.000887  f :     0.006424
      f+1     :     0.000925
      f-1     :     0.000897
      f+2     :     0.000928
      f-2     :     0.000951
      f+3     :     0.000919
      f-3     :     0.000918

SPIN
  0 S s       :     0.013524  s :     0.013524
      pz      :     0.666590  p :     1.955817
      px      :     0.622107
      py      :     0.667120
      dz2     :     0.005394  d :     0.027831
      dxz     :     0.005674
      dyz     :     0.005825
      dx2y2   :     0.005263
      dxy     :     0.005675
      f0      :     0.000376  f :     0.002828
      f+1     :     0.000402
      f-1     :     0.000391
      f+2     :     0.000409
      f-2     :     0.000462
      f+3     :     0.000394
      f-3     :     0.000394


                     *******************************
                     * LOEWDIN POPULATION ANALYSIS *
                     *******************************

-----------------------------------------
LOEWDIN ATOMIC CHARGES AND SPIN DENSITIES
-----------------------------------------
   0 S :   -0.000000    2.000000

--------------------------------------------------
LOEWDIN REDUCED ORBITAL CHARGES AND SPIN DENSITIES
--------------------------------------------------
CHARGE
  0 S s       :     5.975495  s :     5.975495
      pz      :     3.305392  p :     9.959769
      px      :     3.349510
      py      :     3.304867
      dz2     :     0.011753  d :     0.058312
      dxz     :     0.011609
      dyz     :     0.011496
      dx2y2   :     0.011846
      dxy     :     0.011608
      f0      :     0.000887  f :     0.006424
      f+1     :     0.000925
      f-1     :     0.000897
      f+2     :     0.000928
      f-2     :     0.000951
      f+3     :     0.000919
      f-3     :     0.000918

SPIN
  0 S s       :     0.013524  s :     0.013524
      pz      :     0.666590  p :     1.955817
      px      :     0.622107
      py      :     0.667120
      dz2     :     0.005394  d :     0.027831
      dxz     :     0.005674
      dyz     :     0.005825
      dx2y2   :     0.005263
      dxy     :     0.005675
      f0      :     0.000376  f :     0.002828
      f+1     :     0.000402
      f-1     :     0.000391
      f+2     :     0.000409
      f-2     :     0.000462
      f+3     :     0.000394
      f-3     :     0.000394


                      *****************************
                      * MAYER POPULATION ANALYSIS *
                      *****************************

  NA   - Mulliken gross atomic population
  ZA   - Total nuclear charge
  QA   - Mulliken gross atomic charge
  VA   - Mayer's total valence
  BVA  - Mayer's bonded valence
  FA   - Mayer's free valence

  ATOM       NA         ZA         QA         VA         BVA        FA
  0 S     16.0000    16.0000    -0.0000     2.3016     0.0000     2.3016




-------
TIMINGS
-------

Total time                :    1.590 sec
Integral trafo            :    0.204 sec ( 12.9%)
FC preparation            :    0.003 sec (  0.2%)
I/O of integrals          :    0.000 sec (  0.0%)
K(i,j) Operators          :    0.001 sec (  0.0%)
T(i,j) pair energies      :    0.000 sec (  0.0%)
V-calculation             :    0.006 sec (  0.4%)
V**(-1/2)                 :    0.001 sec (  0.0%)
Gamma(ia|P)               :    0.001 sec (  0.0%)
Gamma-Trafo               :    0.001 sec (  0.0%)
D(virtual)                :    0.000 sec (  0.0%)
D(internal)               :    0.000 sec (  0.0%)
W(virtual)                :    0.000 sec (  0.0%)
W(internal)               :    0.000 sec (  0.0%)
L(virtual)                :    0.010 sec (  0.6%)
L(internal)               :    0.000 sec (  0.0%)
G(D)                      :    0.235 sec ( 14.8%)
G(Z)                      :    0.000 sec (  0.0%)
Z-Vector Solution         :    1.099 sec ( 69.1%)
3-Index Derivative        :    0.000 sec (  0.0%)
2-Index Derivative        :    0.000 sec (  0.0%)
Separable Gradient (RIJ)  :    0.000 sec (  0.0%)
Separable Gradient (X)    :    0.000 sec (  0.0%)


---------------------------------------
MP2 TOTAL ENERGY:     -397.616129888 Eh
---------------------------------------

-------------------------   --------------------
FINAL SINGLE POINT ENERGY      -397.616129888347
-------------------------   --------------------


                            ***************************************
                            *     ORCA property calculations      *
                            ***************************************

                                    ---------------------
                                    Active property flags
                                    ---------------------
   (+) Dipole Moment


------------------------------------------------------------------------------
                       ORCA ELECTRIC PROPERTIES CALCULATION
------------------------------------------------------------------------------

Dipole Moment Calculation                       ... on
Quadrupole Moment Calculation                   ... off
Polarizability Calculation                      ... off
GBWName                                         ... s.gbw
Electron density file                           ... s.scfp.tmp

-------------
DIPOLE MOMENT
-------------
                                X             Y             Z
Electronic contribution:     -0.00000       0.00000       0.00000
Nuclear contribution   :      0.00000       0.00000       0.00000
                        -----------------------------------------
Total Dipole Moment    :     -0.00000       0.00000       0.00000
                        -----------------------------------------
Magnitude (a.u.)       :      0.00000
Magnitude (Debye)      :      0.00000


                         *** MP2 UNRELAXED DENSITY ***

------------------------------------------------------------------------------
                       ORCA ELECTRIC PROPERTIES CALCULATION
------------------------------------------------------------------------------

Dipole Moment Calculation                       ... on
Quadrupole Moment Calculation                   ... off
Polarizability Calculation                      ... off
GBWName                                         ... s.gbw
Electron density file                           ... s.pmp2ur

-------------
DIPOLE MOMENT
-------------
                                X             Y             Z
Electronic contribution:     -0.00000       0.00000       0.00000
Nuclear contribution   :      0.00000       0.00000       0.00000
                        -----------------------------------------
Total Dipole Moment    :     -0.00000       0.00000       0.00000
                        -----------------------------------------
Magnitude (a.u.)       :      0.00000
Magnitude (Debye)      :      0.00000


                           *** MP2 RELAXED DENSITY ***

------------------------------------------------------------------------------
                       ORCA ELECTRIC PROPERTIES CALCULATION
------------------------------------------------------------------------------

Dipole Moment Calculation                       ... on
Quadrupole Moment Calculation                   ... off
Polarizability Calculation                      ... off
GBWName                                         ... s.gbw
Electron density file                           ... s.pmp2re

-------------
DIPOLE MOMENT
-------------
                                X             Y             Z
Electronic contribution:     -0.00000       0.00000       0.00000
Nuclear contribution   :      0.00000       0.00000       0.00000
                        -----------------------------------------
Total Dipole Moment    :     -0.00000       0.00000       0.00000
                        -----------------------------------------
Magnitude (a.u.)       :      0.00000
Magnitude (Debye)      :      0.00000


Timings for individual modules:

Sum of individual times         ...        3.037 sec (=   0.051 min)
GTO integral calculation        ...        0.126 sec (=   0.002 min)   4.2 %
SCF iterations                  ...        1.203 sec (=   0.020 min)  39.6 %
MP2 module                      ...        1.708 sec (=   0.028 min)  56.2 %
                             ****ORCA TERMINATED NORMALLY****
TOTAL RUN TIME: 0 days 0 hours 0 minutes 3 seconds 381 msec
