
                                 *****************
                                 * O   R   C   A *
                                 *****************

           --- An Ab Initio, DFT and Semiempirical electronic structure package ---

                  #######################################################
                  #                        -***-                        #
                  #  Department of molecular theory and spectroscopy    #
                  #              Directorship: Frank Neese              #
                  # Max Planck Institute for Chemical Energy Conversion #
                  #                  D-45470 Muelheim/Ruhr              #
                  #                       Germany                       #
                  #                                                     #
                  #                  All rights reserved                #
                  #                        -***-                        #
                  #######################################################


                         Program Version 3.0.3 - RELEASE   -


 With contributions from (in alphabetic order):
   Ute Becker             : Parallelization
   Dmytro Bykov           : SCF Hessian
   Dmitry Ganyushin       : Spin-Orbit,Spin-Spin,Magnetic field MRCI
   Andreas Hansen         : Spin unrestricted coupled pair/coupled cluster methods
   Dimitrios Liakos       : Extrapolation schemes; parallel MDCI
   Robert Izsak           : Overlap fitted RIJCOSX, COSX-SCS-MP3
   Christian Kollmar      : KDIIS, OOCD, Brueckner-CCSD(T), CCSD density
   Simone Kossmann        : Meta GGA functionals, TD-DFT gradient, OOMP2, MP2 Hessian
   Taras Petrenko         : DFT Hessian,TD-DFT gradient, ASA and ECA modules, normal mode analysis, Resonance Raman, ABS, FL, XAS/XES, NRVS
   Christoph Reimann      : Effective Core Potentials
   Michael Roemelt        : Restricted open shell CIS
   Christoph Riplinger    : Improved optimizer, TS searches, QM/MM, DLPNO-CCSD
   Barbara Sandhoefer     : DKH picture change effects
   Igor Schapiro          : Molecular dynamics
   Kantharuban Sivalingam : CASSCF convergence, NEVPT2
   Boris Wezisla          : Elementary symmetry handling
   Frank Wennmohs         : Technical directorship


 We gratefully acknowledge several colleagues who have allowed us to
 interface, adapt or use parts of their codes:
   Stefan Grimme, W. Hujo, H. Kruse, T. Risthaus : VdW corrections, initial TS optimization,
                                                   DFT functionals, gCP
   Ed Valeev                                     : LibInt (2-el integral package), F12 methods
   Garnet Chan, S. Sharma, R. Olivares           : DMRG
   Ulf Ekstrom                                   : XCFun DFT Library
   Mihaly Kallay                                 : mrcc  (arbitrary order and MRCC methods)
   Andreas Klamt, Michael Diedenhofen            : otool_cosmo (COSMO solvation model)
   Frank Weinhold                                : gennbo (NPA and NBO analysis)
   Christopher J. Cramer and Donald G. Truhlar   : smd solvation model


 Your calculation uses the libint2 library for the computation of 2-el integrals
 For citations please refer to: http://libint.valeyev.net

 This ORCA versions uses:
   CBLAS   interface :  Fast vector & matrix operations
   LAPACKE interface :  Fast linear algebra routines
   SCALAPACK package :  Parallel linear algebra routines


Your calculation utilizes the basis: Ahlrichs-TZV
Cite in your paper:
H - Kr: A. Schaefer, H. Horn and R. Ahlrichs, J. Chem. Phys. 97, 2571 (1992).

The def2-TZV basis will be loaded
Cite in your paper:
 	F. Weigend, R. Ahlrichs, Phys. Chem. Chem. Phys. 2005, 7, 3297.

================================================================================
                                        WARNINGS
                       Please study these warnings very carefully!
================================================================================
Now building the actual basis set


INFO   : the flag for use of LIBINT has been found!

================================================================================
                                       INPUT FILE
================================================================================
NAME = dsgdb9nsd_050652.inp
|  1> ! RI-MP2 RIJK def2-TZVP def2-TZVP/C def2-TZVP/JK TIGHTSCF
|  2> % maxcore 2000
|  3> % mp2 density relaxed end
|  4> *xyz 0 1
|  5>  O       -0.1149406750    -0.0223658773    -0.1178634382 
|  6>  C       -0.0340500091     1.1737124740    -0.0080787758 
|  7>  C        1.2762147440     1.9322652815     0.0681305270 
|  8>  C        1.3575974421     2.8595415629     1.3012700795 
|  9>  N        2.6743625728     3.4648270318     1.4258704905 
| 10>  C        3.7242614861     2.4536223059     1.5563535780 
| 11>  C        3.5788867254     1.1732556083     0.7242411160 
| 12>  O        4.4531190216     0.3299660412     0.7017730685 
| 13>  N        2.3953161946     1.0214206113     0.0539875797 
| 14>  H       -0.9379543391     1.8208404921     0.0227473544 
| 15>  H        1.2772951747     2.5871038995    -0.8257955583 
| 16>  H        0.5955942536     3.6416821267     1.2307725247 
| 17>  H        1.1583296348     2.2767065547     2.2090789762 
| 18>  H        2.8567276614     4.0481042577     0.6151748129 
| 19>  H        4.6955456851     2.8956152744     1.3223672283 
| 20>  H        3.7824264353     2.1227577002     2.6019003589 
| 21>  H        2.2456889316     0.1185330951    -0.3779778924 
| 22> *
| 23> 
| 24>                          ****END OF INPUT****
================================================================================

                       ****************************
                       * Single Point Calculation *
                       ****************************

---------------------------------
CARTESIAN COORDINATES (ANGSTROEM)
---------------------------------
  O     -0.114941   -0.022366   -0.117863
  C     -0.034050    1.173712   -0.008079
  C      1.276215    1.932265    0.068131
  C      1.357597    2.859542    1.301270
  N      2.674363    3.464827    1.425870
  C      3.724261    2.453622    1.556354
  C      3.578887    1.173256    0.724241
  O      4.453119    0.329966    0.701773
  N      2.395316    1.021421    0.053988
  H     -0.937954    1.820840    0.022747
  H      1.277295    2.587104   -0.825796
  H      0.595594    3.641682    1.230773
  H      1.158330    2.276707    2.209079
  H      2.856728    4.048104    0.615175
  H      4.695546    2.895615    1.322367
  H      3.782426    2.122758    2.601900
  H      2.245689    0.118533   -0.377978

----------------------------
CARTESIAN COORDINATES (A.U.)
----------------------------
  NO LB      ZA    FRAG    MASS        X           Y           Z
   0 O     8.0000    0    15.999         -0.217206397398049         -0.042265382841886         -0.222729619400352
   1 C     6.0000    0    12.011         -0.064345192056526          2.217995135827167         -0.015266673759351
   2 C     6.0000    0    12.011          2.411696354232420          3.651452200119254          0.128748037389727
   3 C     6.0000    0    12.011          2.565487365681014          5.403750422446151          2.459044076520935
   4 N     7.0000    0    14.007          5.053812845401035          6.547574191509260          2.694504729484964
   5 C     6.0000    0    12.011          7.037834259839569          4.636674194231354          2.941082029968447
   6 C     6.0000    0    12.011          6.763115775332230          2.217131784774185          1.368617364165493
   7 O     8.0000    0    15.999          8.415175392579355          0.623545451362176          1.326158907626559
   8 N     7.0000    0    14.007          4.526491611940422          1.930205222899430          0.102021740266246
   9 H     1.0000    0     1.008         -1.772476827022106          3.440889863623402          0.042986270087249
  10 H     1.0000    0     1.008          2.413738072362101          4.888917850054730         -1.560527447795601
  11 H     1.0000    0     1.008          1.125510026241241          6.881781886258913          2.325823004837829
  12 H     1.0000    0     1.008          2.188925782577019          4.302351875686404          4.174554273221142
  13 H     1.0000    0     1.008          5.398432919243320          7.649808408613580          1.162511920867246
  14 H     1.0000    0     1.008          8.873295394154638          5.471919857815236          2.498911909959520
  15 H     1.0000    0     1.008          7.147750084421011          4.011430702050514          4.916879106072415
  16 H     1.0000    0     1.008          4.243737062702214          0.223995087545043         -0.714274701312755

--------------------------------
INTERNAL COORDINATES (ANGSTROEM)
--------------------------------
 O      0   0   0   0.000000     0.000     0.000
 C      1   0   0   1.203827     0.000     0.000
 C      2   1   0   1.515917   124.044     0.000
 C      3   2   1   1.545023   112.704   233.325
 N      4   3   2   1.454567   111.457   173.953
 C      5   4   3   1.463506   111.687   300.653
 C      6   5   4   1.533911   117.412    38.031
 O      7   6   5   1.214876   121.415   174.600
 N      7   6   5   1.368624   116.118   352.400
 H      2   1   3   1.112101   121.740   178.575
 H      3   2   1   1.108115   104.832   117.538
 H      4   3   2   1.094241   109.931   295.917
 H      4   3   2   1.097051   109.392    54.169
 H      5   4   3   1.015232   109.468    62.515
 H      6   5   4   1.092474   109.826   161.614
 H      6   5   4   1.098191   109.332   277.748
 H      9   7   6   1.012022   115.841   188.902

---------------------------
INTERNAL COORDINATES (A.U.)
---------------------------
 O      0   0   0   0.000000     0.000     0.000
 C      1   0   0   2.274903     0.000     0.000
 C      2   1   0   2.864668   124.044     0.000
 C      3   2   1   2.919671   112.704   233.325
 N      4   3   2   2.748734   111.457   173.953
 C      5   4   3   2.765625   111.687   300.653
 C      6   5   4   2.898672   117.412    38.031
 O      7   6   5   2.295783   121.415   174.600
 N      7   6   5   2.586325   116.118   352.400
 H      2   1   3   2.101566   121.740   178.575
 H      3   2   1   2.094034   104.832   117.538
 H      4   3   2   2.067815   109.931   295.917
 H      4   3   2   2.073126   109.392    54.169
 H      5   4   3   1.918511   109.468    62.515
 H      6   5   4   2.064477   109.826   161.614
 H      6   5   4   2.075279   109.332   277.748
 H      9   7   6   1.912444   115.841   188.902

---------------------
BASIS SET INFORMATION
---------------------
There are 4 groups of distinct atoms

 Group   1 Type O   : 11s6p2d1f contracted to 5s3p2d1f pattern {62111/411/11/1}
 Group   2 Type C   : 11s6p2d1f contracted to 5s3p2d1f pattern {62111/411/11/1}
 Group   3 Type N   : 11s6p2d1f contracted to 5s3p2d1f pattern {62111/411/11/1}
 Group   4 Type H   : 5s1p contracted to 3s1p pattern {311/1}

Atom   0O    basis set group =>   1
Atom   1C    basis set group =>   2
Atom   2C    basis set group =>   2
Atom   3C    basis set group =>   2
Atom   4N    basis set group =>   3
Atom   5C    basis set group =>   2
Atom   6C    basis set group =>   2
Atom   7O    basis set group =>   1
Atom   8N    basis set group =>   3
Atom   9H    basis set group =>   4
Atom  10H    basis set group =>   4
Atom  11H    basis set group =>   4
Atom  12H    basis set group =>   4
Atom  13H    basis set group =>   4
Atom  14H    basis set group =>   4
Atom  15H    basis set group =>   4
Atom  16H    basis set group =>   4
-------------------------------
AUXILIARY BASIS SET INFORMATION
-------------------------------
There are 4 groups of distinct atoms

 Group   1 Type O   : 14s10p6d2f1g contracted to 10s8p4d2f1g pattern {5111111111/31111111/3111/11/1}
 Group   2 Type C   : 14s10p6d2f1g contracted to 10s8p5d1f1g pattern {5111111111/31111111/21111/2/1}
 Group   3 Type N   : 14s10p6d2f1g contracted to 10s8p4d2f1g pattern {5111111111/31111111/3111/11/1}
 Group   4 Type H   : 4s2p2d contracted to 2s2p2d pattern {31/11/11}

Atom   0O    basis set group =>   1
Atom   1C    basis set group =>   2
Atom   2C    basis set group =>   2
Atom   3C    basis set group =>   2
Atom   4N    basis set group =>   3
Atom   5C    basis set group =>   2
Atom   6C    basis set group =>   2
Atom   7O    basis set group =>   1
Atom   8N    basis set group =>   3
Atom   9H    basis set group =>   4
Atom  10H    basis set group =>   4
Atom  11H    basis set group =>   4
Atom  12H    basis set group =>   4
Atom  13H    basis set group =>   4
Atom  14H    basis set group =>   4
Atom  15H    basis set group =>   4
Atom  16H    basis set group =>   4
------------------------------------------------------------------------------
                           ORCA GTO INTEGRAL CALCULATION
                           -- RI-GTO INTEGRALS CHOSEN --
------------------------------------------------------------------------------

                         BASIS SET STATISTICS AND STARTUP INFO

Gaussian basis set:
 # of primitive gaussian shells          ...  228
 # of primitive gaussian functions       ...  478
 # of contracted shells                  ...  131
 # of contracted basis functions         ...  327
 Highest angular momentum                ...    3
 Maximum contraction depth               ...    6
Auxiliary gaussian basis set:
 # of primitive gaussian shells          ...  361
 # of primitive gaussian functions       ... 1033
 # of contracted shells                  ...  273
 # of contracted aux-basis functions     ...  827
 Highest angular momentum                ...    4
 Maximum contraction depth               ...    5
Ratio of auxiliary to basis functions    ...  2.53
Integral package used                  ... LIBINT
 One Electron integrals                  ... done
 Ordering auxiliary basis shells         ... done
 Integral threshhold             Thresh  ...  2.500e-11
 Primitive cut-off               TCut    ...  2.500e-12
 Pre-screening matrix                    ... done
 Shell pair data                         ... 
 Ordering of the shell pairs             ... done (   0.001 sec) 7890 of 8646 pairs
 Determination of significant pairs      ... done (   0.000 sec)
 Creation of shell pair data             ... done (   0.002 sec)
 Storage of shell pair data              ... done (   0.002 sec)
 Shell pair data done in (   0.005 sec)
 Computing two index integrals           ... done
 Cholesky decomposition of the V-matrix  ... done


Timings:
 Total evaluation time                   ...   0.377 sec (  0.006 min)
 One electron matrix time                ...   0.079 sec (  0.001 min) = 21.1%
 Schwartz matrix evaluation time         ...   0.211 sec (  0.004 min) = 55.8%
 Two index repulsion integral time       ...   0.022 sec (  0.000 min) =  5.9%
 Cholesky decomposition of V             ...   0.032 sec (  0.001 min) =  8.4%
 Three index repulsion integral time     ...   0.000 sec (  0.000 min) =  0.0%

-------------------------------------------------------------------------------
                                 ORCA SCF
-------------------------------------------------------------------------------

------------
SCF SETTINGS
------------
Hamiltonian:
 Ab initio Hamiltonian  Method          .... Hartree-Fock(GTOs)
 RI-approximation to the Coulomb term is turned on
   Number of auxiliary basis functions  .... 827
   RI-JK (J+K treated both via RI)      .... on


General Settings:
 Integral files         IntName         .... dsgdb9nsd_050652
 Hartree-Fock type      HFTyp           .... RHF
 Total Charge           Charge          ....    0
 Multiplicity           Mult            ....    1
 Number of Electrons    NEL             ....   68
 Basis Dimension        Dim             ....  327
 Nuclear Repulsion      ENuc            ....    457.7612641994 Eh

Convergence Acceleration:
 DIIS                   CNVDIIS         .... on
   Start iteration      DIISMaxIt       ....    12
   Startup error        DIISStart       ....  0.200000
   # of expansion vecs  DIISMaxEq       ....     5
   Bias factor          DIISBfac        ....   1.050
   Max. coefficient     DIISMaxC        ....  10.000
 Newton-Raphson         CNVNR           .... off
 SOSCF                  CNVSOSCF        .... on
   Start iteration      SOSCFMaxIt      ....   150
   Startup grad/error   SOSCFStart      ....  0.003300
 Level Shifting         CNVShift        .... on
   Level shift para.    LevelShift      ....    0.2500
   Turn off err/grad.   ShiftErr        ....    0.0010
 Zerner damping         CNVZerner       .... off
 Static damping         CNVDamp         .... on
   Fraction old density DampFac         ....    0.7000
   Max. Damping (<1)    DampMax         ....    0.9800
   Min. Damping (>=0)   DampMin         ....    0.0000
   Turn off err/grad.   DampErr         ....    0.1000
 Fernandez-Rico         CNVRico         .... off

SCF Procedure:
 Maximum # iterations   MaxIter         ....   125
 SCF integral mode      SCFMode         .... Direct
   Integral package                     .... LIBINT
 Reset frequeny         DirectResetFreq ....    20
 Integral Threshold     Thresh          ....  2.500e-11 Eh
 Primitive CutOff       TCut            ....  2.500e-12 Eh

Convergence Tolerance:
 Convergence Check Mode ConvCheckMode   .... Total+1el-Energy
 Energy Change          TolE            ....  1.000e-08 Eh
 1-El. energy change                    ....  1.000e-05 Eh
 Orbital Gradient       TolG            ....  1.000e-05
 Orbital Rotation angle TolX            ....  1.000e-05
 DIIS Error             TolErr          ....  5.000e-07


Diagonalization of the overlap matrix:
Smallest eigenvalue                        ... 1.410e-04
Time for diagonalization                   ...    0.031 sec
Threshold for overlap eigenvalues          ... 1.000e-08
Number of eigenvalues below threshold      ... 0
Time for construction of square roots      ...    0.016 sec
Total time needed                          ...    0.048 sec

-------------------
DFT GRID GENERATION
-------------------

General Integration Accuracy     IntAcc      ...  4.340
Radial Grid Type                 RadialGrid  ... Gauss-Chebyshev
Angular Grid (max. acc.)         AngularGrid ... Lebedev-110
Angular grid pruning method      GridPruning ... 3 (G Style)
Weight generation scheme         WeightScheme... Becke
Basis function cutoff            BFCut       ...    1.0000e-11
Integration weight cutoff        WCut        ...    1.0000e-14
Grids for H and He will be reduced by one unit

# of grid points (after initial pruning)     ...  21468 (   0.0 sec)
# of grid points (after weights+screening)   ...  19804 (   0.1 sec)
nearest neighbour list constructed           ...    0.0 sec
Grid point re-assignment to atoms done       ...    0.0 sec
Grid point division into batches done        ...    0.0 sec
Reduced shell lists constructed in    1.2 sec

Total number of grid points                  ...    19804
Total number of batches                      ...      318
Average number of points per batch           ...       62
Average number of grid points per atom       ...     1165
Average number of shells per batch           ...    88.84 (67.82%)
Average number of basis functions per batch  ...   226.20 (69.17%)
Average number of large shells per batch     ...    69.43 (78.15%)
Average number of large basis fcns per batch ...   174.02 (76.93%)
Average number of aux-shells per batch       ...    88.84 (32.54%)
Average number of aux functions per batch    ...   226.20 (  inf%)
Maximum spatial batch extension              ...  19.70, 19.27, 24.89 au
Average spatial batch extension              ...   3.50,  3.70,  3.88 au

Time for grid setup =    1.337 sec

------------------------------
INITIAL GUESS: MODEL POTENTIAL
------------------------------
Loading Hartree-Fock densities                     ... done
Calculating cut-offs                               ... done
Setting up the integral package                    ... done
Initializing the effective Hamiltonian             ... done
Starting the Coulomb interaction                   ... done (   0.6 sec)
Reading the grid                                   ... done
Mapping shells                                     ... done
Starting the XC term evaluation                    ... done (   0.6 sec)
Transforming the Hamiltonian                       ... done (   0.0 sec)
Diagonalizing the Hamiltonian                      ... done (   0.0 sec)
Back transforming the eigenvectors                 ... done (   0.0 sec)
Now organizing SCF variables                       ... done
                      ------------------
                      INITIAL GUESS DONE (   2.7 sec)
                      ------------------
--------------
SCF ITERATIONS
--------------
ITER       Energy         Delta-E        Max-DP      RMS-DP      [F,P]     Damp
  0   -452.3961191363   0.000000000000 0.05046646  0.00086596  0.2932752 0.7000
  1   -452.1823972487   0.213721887666 0.08716410  0.00100666  0.2822732 0.7000
                               ***Turning on DIIS***
  2   -452.2201424070  -0.037745158269 0.06299234  0.00071266  0.1882910 0.7000
  3   -453.1616143216  -0.941471914625 0.01029737  0.00030134  0.1353341 0.7000
  4   -452.6158383351   0.545775986464 0.07354915  0.00086778  0.0876410 0.0000
  5   -452.8244833402  -0.208645005113 0.02006970  0.00027680  0.0368374 0.0000
  6   -452.7200381176   0.104445222629 0.01026548  0.00011614  0.0140176 0.0000
  7   -452.7291093096  -0.009071192037 0.00315350  0.00005580  0.0082928 0.0000
  8   -452.7359733361  -0.006864026442 0.00292139  0.00005089  0.0070423 0.0000
                      *** Initiating the SOSCF procedure ***
                           *** Shutting down DIIS ***
                      *** Re-Reading the Fockian *** 
                      *** Removing any level shift *** 
ITER      Energy       Delta-E        Grad      Rot      Max-DP    RMS-DP
  9   -452.79008819  -0.0541148574  0.000445  0.000445  0.000735  0.000013
 10   -452.79241986  -0.0023316629  0.000236  0.000363  0.000518  0.000009
 11   -452.79242251  -0.0000026538  0.000099  0.000418  0.000936  0.000013
 12   -452.79242361  -0.0000011019  0.000038  0.000035  0.000126  0.000003
 13   -452.79242373  -0.0000001210  0.000013  0.000020  0.000031  0.000001
 14   -452.79242374  -0.0000000093  0.000004  0.000008  0.000032  0.000000
                  ***Gradient check signals convergence***
              ***Rediagonalizing the Fockian in SOSCF/NRSCF***

               *****************************************************
               *                     SUCCESS                       *
               *           SCF CONVERGED AFTER  15 CYCLES          *
               *****************************************************


----------------
TOTAL SCF ENERGY
----------------

Total Energy       :         -452.79242374 Eh          -12321.10824 eV

Components:
Nuclear Repulsion  :          457.76126420 Eh           12456.31727 eV
Electronic Energy  :         -910.55368794 Eh          -24777.42551 eV

One Electron Energy:        -1525.48253431 Eh          -41510.49011 eV
Two Electron Energy:          614.92884637 Eh           16733.06460 eV

Virial components:
Potential Energy   :         -904.96372528 Eh          -24625.31489 eV
Kinetic Energy     :          452.17130154 Eh           12304.20665 eV
Virial Ratio       :            2.00137364


---------------
SCF CONVERGENCE
---------------

  Last Energy change         ...   -1.5585e-09  Tolerance :   1.0000e-08
  Last MAX-Density change    ...    1.0335e-05  Tolerance :   1.0000e-07
  Last RMS-Density change    ...    1.2759e-07  Tolerance :   5.0000e-09
  Last Orbital Gradient      ...    2.2089e-06  Tolerance :   1.0000e-05
  Last Orbital Rotation      ...    5.8412e-06  Tolerance :   1.0000e-05

             **** THE GBW FILE WAS UPDATED (dsgdb9nsd_050652.gbw) ****
             **** DENSITY FILE WAS UPDATED (dsgdb9nsd_050652.scfp.tmp) ****
             **** ENERGY FILE WAS UPDATED (dsgdb9nsd_050652.en.tmp) ****
----------------
ORBITAL ENERGIES
----------------

  NO   OCC          E(Eh)            E(eV) 
   0   2.0000     -20.584698      -560.1381 
   1   2.0000     -20.517857      -558.3193 
   2   2.0000     -15.591426      -424.2643 
   3   2.0000     -15.576514      -423.8585 
   4   2.0000     -11.357869      -309.0633 
   5   2.0000     -11.353752      -308.9513 
   6   2.0000     -11.307013      -307.6795 
   7   2.0000     -11.291132      -307.2473 
   8   2.0000     -11.276309      -306.8440 
   9   2.0000      -1.424977       -38.7756 
  10   2.0000      -1.385438       -37.6997 
  11   2.0000      -1.270949       -34.5843 
  12   2.0000      -1.215553       -33.0769 
  13   2.0000      -1.062363       -28.9084 
  14   2.0000      -0.964175       -26.2365 
  15   2.0000      -0.904579       -24.6148 
  16   2.0000      -0.832805       -22.6618 
  17   2.0000      -0.788139       -21.4463 
  18   2.0000      -0.724280       -19.7087 
  19   2.0000      -0.698815       -19.0157 
  20   2.0000      -0.684631       -18.6297 
  21   2.0000      -0.668243       -18.1838 
  22   2.0000      -0.652161       -17.7462 
  23   2.0000      -0.616388       -16.7728 
  24   2.0000      -0.611053       -16.6276 
  25   2.0000      -0.597725       -16.2649 
  26   2.0000      -0.559561       -15.2264 
  27   2.0000      -0.546178       -14.8623 
  28   2.0000      -0.534965       -14.5571 
  29   2.0000      -0.509951       -13.8765 
  30   2.0000      -0.465113       -12.6564 
  31   2.0000      -0.452600       -12.3159 
  32   2.0000      -0.403399       -10.9770 
  33   2.0000      -0.381788       -10.3890 
  34   0.0000       0.103465         2.8154 
  35   0.0000       0.116695         3.1754 
  36   0.0000       0.144765         3.9392 
  37   0.0000       0.150882         4.1057 
  38   0.0000       0.163795         4.4571 
  39   0.0000       0.171637         4.6705 
  40   0.0000       0.187099         5.0912 
  41   0.0000       0.199236         5.4215 
  42   0.0000       0.206275         5.6130 
  43   0.0000       0.241734         6.5779 
  44   0.0000       0.250879         6.8268 
  45   0.0000       0.260309         7.0834 
  46   0.0000       0.272229         7.4077 
  47   0.0000       0.282784         7.6949 
  48   0.0000       0.292383         7.9561 
  49   0.0000       0.317547         8.6409 
  50   0.0000       0.330502         8.9934 
  51   0.0000       0.350336         9.5331 
  52   0.0000       0.365176         9.9370 
  53   0.0000       0.374364        10.1870 
  54   0.0000       0.386037        10.5046 
  55   0.0000       0.407981        11.1017 
  56   0.0000       0.418598        11.3906 
  57   0.0000       0.434734        11.8297 
  58   0.0000       0.454241        12.3605 
  59   0.0000       0.461267        12.5517 
  60   0.0000       0.478303        13.0153 
  61   0.0000       0.483978        13.1697 
  62   0.0000       0.485440        13.2095 
  63   0.0000       0.504943        13.7402 
  64   0.0000       0.513012        13.9598 
  65   0.0000       0.523552        14.2466 
  66   0.0000       0.539292        14.6749 
  67   0.0000       0.556824        15.1519 
  68   0.0000       0.566548        15.4166 
  69   0.0000       0.575565        15.6619 
  70   0.0000       0.584234        15.8978 
  71   0.0000       0.588982        16.0270 
  72   0.0000       0.600566        16.3422 
  73   0.0000       0.613182        16.6855 
  74   0.0000       0.626421        17.0458 
  75   0.0000       0.636804        17.3283 
  76   0.0000       0.661983        18.0135 
  77   0.0000       0.663762        18.0619 
  78   0.0000       0.685262        18.6469 
  79   0.0000       0.696773        18.9602 
  80   0.0000       0.703006        19.1298 
  81   0.0000       0.714909        19.4537 
  82   0.0000       0.734142        19.9770 
  83   0.0000       0.747041        20.3280 
  84   0.0000       0.758214        20.6320 
  85   0.0000       0.766140        20.8477 
  86   0.0000       0.788718        21.4621 
  87   0.0000       0.799746        21.7622 
  88   0.0000       0.808275        21.9943 
  89   0.0000       0.816539        22.2192 
  90   0.0000       0.834955        22.7203 
  91   0.0000       0.865051        23.5392 
  92   0.0000       0.879912        23.9436 
  93   0.0000       0.903304        24.5802 
  94   0.0000       0.940127        25.5821 
  95   0.0000       0.961500        26.1638 
  96   0.0000       0.978010        26.6130 
  97   0.0000       1.002682        27.2844 
  98   0.0000       1.023460        27.8498 
  99   0.0000       1.034935        28.1620 
 100   0.0000       1.072038        29.1716 
 101   0.0000       1.093643        29.7596 
 102   0.0000       1.115396        30.3515 
 103   0.0000       1.117457        30.4075 
 104   0.0000       1.131489        30.7894 
 105   0.0000       1.183384        32.2015 
 106   0.0000       1.196890        32.5690 
 107   0.0000       1.227046        33.3896 
 108   0.0000       1.237051        33.6619 
 109   0.0000       1.243722        33.8434 
 110   0.0000       1.274969        34.6937 
 111   0.0000       1.291293        35.1379 
 112   0.0000       1.331219        36.2243 
 113   0.0000       1.351916        36.7875 
 114   0.0000       1.357792        36.9474 
 115   0.0000       1.362266        37.0691 
 116   0.0000       1.418978        38.6124 
 117   0.0000       1.443851        39.2892 
 118   0.0000       1.469857        39.9968 
 119   0.0000       1.508195        41.0401 
 120   0.0000       1.539051        41.8797 
 121   0.0000       1.565170        42.5904 
 122   0.0000       1.578320        42.9483 
 123   0.0000       1.601432        43.5772 
 124   0.0000       1.625261        44.2256 
 125   0.0000       1.636842        44.5407 
 126   0.0000       1.669373        45.4259 
 127   0.0000       1.694444        46.1082 
 128   0.0000       1.699897        46.2565 
 129   0.0000       1.716174        46.6995 
 130   0.0000       1.730397        47.0865 
 131   0.0000       1.772521        48.2328 
 132   0.0000       1.780331        48.4453 
 133   0.0000       1.786622        48.6165 
 134   0.0000       1.808625        49.2152 
 135   0.0000       1.830595        49.8130 
 136   0.0000       1.835899        49.9574 
 137   0.0000       1.848884        50.3107 
 138   0.0000       1.864515        50.7360 
 139   0.0000       1.880611        51.1740 
 140   0.0000       1.919147        52.2227 
 141   0.0000       1.930854        52.5412 
 142   0.0000       1.935986        52.6809 
 143   0.0000       2.008401        54.6514 
 144   0.0000       2.019550        54.9548 
 145   0.0000       2.023677        55.0670 
 146   0.0000       2.062846        56.1329 
 147   0.0000       2.075045        56.4648 
 148   0.0000       2.100052        57.1453 
 149   0.0000       2.108320        57.3703 
 150   0.0000       2.133954        58.0678 
 151   0.0000       2.146712        58.4150 
 152   0.0000       2.195339        59.7382 
 153   0.0000       2.209169        60.1145 
 154   0.0000       2.215366        60.2832 
 155   0.0000       2.237366        60.8818 
 156   0.0000       2.259857        61.4938 
 157   0.0000       2.270224        61.7759 
 158   0.0000       2.305549        62.7372 
 159   0.0000       2.316105        63.0244 
 160   0.0000       2.331845        63.4527 
 161   0.0000       2.378544        64.7235 
 162   0.0000       2.392697        65.1086 
 163   0.0000       2.413389        65.6717 
 164   0.0000       2.449236        66.6471 
 165   0.0000       2.462461        67.0070 
 166   0.0000       2.476475        67.3883 
 167   0.0000       2.512202        68.3605 
 168   0.0000       2.519410        68.5566 
 169   0.0000       2.538839        69.0853 
 170   0.0000       2.591360        70.5145 
 171   0.0000       2.606548        70.9278 
 172   0.0000       2.616784        71.2063 
 173   0.0000       2.634760        71.6955 
 174   0.0000       2.675350        72.8000 
 175   0.0000       2.719854        74.0110 
 176   0.0000       2.738153        74.5089 
 177   0.0000       2.771836        75.4255 
 178   0.0000       2.780920        75.6727 
 179   0.0000       2.792059        75.9758 
 180   0.0000       2.811247        76.4979 
 181   0.0000       2.814783        76.5941 
 182   0.0000       2.847930        77.4961 
 183   0.0000       2.875761        78.2534 
 184   0.0000       2.886769        78.5530 
 185   0.0000       2.904930        79.0472 
 186   0.0000       2.927850        79.6708 
 187   0.0000       2.933858        79.8343 
 188   0.0000       2.958728        80.5111 
 189   0.0000       2.977213        81.0141 
 190   0.0000       2.987434        81.2922 
 191   0.0000       3.021861        82.2290 
 192   0.0000       3.054660        83.1215 
 193   0.0000       3.064780        83.3969 
 194   0.0000       3.084769        83.9408 
 195   0.0000       3.117304        84.8262 
 196   0.0000       3.131303        85.2071 
 197   0.0000       3.148855        85.6847 
 198   0.0000       3.167877        86.2023 
 199   0.0000       3.199614        87.0659 
 200   0.0000       3.226380        87.7943 
 201   0.0000       3.249216        88.4157 
 202   0.0000       3.291378        89.5630 
 203   0.0000       3.298540        89.7578 
 204   0.0000       3.308365        90.0252 
 205   0.0000       3.328596        90.5757 
 206   0.0000       3.334018        90.7232 
 207   0.0000       3.358524        91.3901 
 208   0.0000       3.375489        91.8517 
 209   0.0000       3.406015        92.6824 
 210   0.0000       3.429384        93.3183 
 211   0.0000       3.435567        93.4865 
 212   0.0000       3.477180        94.6189 
 213   0.0000       3.483162        94.7817 
 214   0.0000       3.486791        94.8804 
 215   0.0000       3.502395        95.3050 
 216   0.0000       3.523431        95.8774 
 217   0.0000       3.539079        96.3032 
 218   0.0000       3.544420        96.4486 
 219   0.0000       3.557988        96.8178 
 220   0.0000       3.574182        97.2584 
 221   0.0000       3.589151        97.6658 
 222   0.0000       3.610144        98.2370 
 223   0.0000       3.619106        98.4809 
 224   0.0000       3.654898        99.4548 
 225   0.0000       3.679012       100.1110 
 226   0.0000       3.696757       100.5939 
 227   0.0000       3.733432       101.5918 
 228   0.0000       3.737563       101.7043 
 229   0.0000       3.766378       102.4883 
 230   0.0000       3.780104       102.8619 
 231   0.0000       3.791746       103.1786 
 232   0.0000       3.802779       103.4789 
 233   0.0000       3.830050       104.2210 
 234   0.0000       3.843589       104.5894 
 235   0.0000       3.876472       105.4842 
 236   0.0000       3.919713       106.6608 
 237   0.0000       3.925232       106.8110 
 238   0.0000       3.940021       107.2134 
 239   0.0000       4.002790       108.9214 
 240   0.0000       4.031749       109.7095 
 241   0.0000       4.049354       110.1885 
 242   0.0000       4.070824       110.7727 
 243   0.0000       4.072375       110.8150 
 244   0.0000       4.119355       112.0934 
 245   0.0000       4.168997       113.4442 
 246   0.0000       4.188487       113.9745 
 247   0.0000       4.222746       114.9067 
 248   0.0000       4.237514       115.3086 
 249   0.0000       4.241098       115.4061 
 250   0.0000       4.322299       117.6157 
 251   0.0000       4.362997       118.7232 
 252   0.0000       4.376454       119.0894 
 253   0.0000       4.405413       119.8774 
 254   0.0000       4.432537       120.6155 
 255   0.0000       4.493540       122.2754 
 256   0.0000       4.496788       122.3638 
 257   0.0000       4.511631       122.7677 
 258   0.0000       4.574275       124.4723 
 259   0.0000       4.584539       124.7517 
 260   0.0000       4.641562       126.3033 
 261   0.0000       4.687090       127.5422 
 262   0.0000       4.737377       128.9106 
 263   0.0000       4.788135       130.2918 
 264   0.0000       4.854646       132.1016 
 265   0.0000       4.865882       132.4074 
 266   0.0000       4.917287       133.8062 
 267   0.0000       4.951105       134.7264 
 268   0.0000       5.011486       136.3695 
 269   0.0000       5.081853       138.2843 
 270   0.0000       5.089239       138.4852 
 271   0.0000       5.146844       140.0527 
 272   0.0000       5.208062       141.7186 
 273   0.0000       5.222903       142.1224 
 274   0.0000       5.257039       143.0513 
 275   0.0000       5.302534       144.2893 
 276   0.0000       5.409763       147.2071 
 277   0.0000       5.451250       148.3360 
 278   0.0000       5.509401       149.9184 
 279   0.0000       5.523216       150.2944 
 280   0.0000       5.549984       151.0227 
 281   0.0000       5.583423       151.9327 
 282   0.0000       5.598431       152.3410 
 283   0.0000       5.619030       152.9016 
 284   0.0000       5.629956       153.1989 
 285   0.0000       5.654883       153.8772 
 286   0.0000       5.678887       154.5304 
 287   0.0000       5.711389       155.4148 
 288   0.0000       5.741021       156.2211 
 289   0.0000       5.779653       157.2724 
 290   0.0000       5.802244       157.8871 
 291   0.0000       5.818551       158.3308 
 292   0.0000       5.935722       161.5192 
 293   0.0000       5.967788       162.3918 
 294   0.0000       5.985482       162.8733 
 295   0.0000       6.005211       163.4101 
 296   0.0000       6.064237       165.0163 
 297   0.0000       6.128136       166.7551 
 298   0.0000       6.154197       167.4642 
 299   0.0000       6.269114       170.5913 
 300   0.0000       6.286843       171.0737 
 301   0.0000       6.458688       175.7498 
 302   0.0000       6.577894       178.9936 
 303   0.0000       6.630467       180.4242 
 304   0.0000       6.819115       185.5575 
 305   0.0000       6.849194       186.3760 
 306   0.0000       6.860275       186.6776 
 307   0.0000       6.914103       188.1423 
 308   0.0000       6.938678       188.8110 
 309   0.0000       6.962667       189.4638 
 310   0.0000       7.083298       192.7463 
 311   0.0000       7.252327       197.3459 
 312   0.0000       7.288019       198.3171 
 313   0.0000       7.357597       200.2104 
 314   0.0000       7.453322       202.8152 
 315   0.0000       7.569299       205.9711 
 316   0.0000       7.576540       206.1681 
 317   0.0000       7.628890       207.5927 
 318   0.0000      23.533324       640.3743 
 319   0.0000      23.618764       642.6993 
 320   0.0000      23.699779       644.9038 
 321   0.0000      23.838705       648.6841 
 322   0.0000      24.437201       664.9700 
 323   0.0000      33.649591       915.6519 
 324   0.0000      33.920223       923.0162 
 325   0.0000      45.362547      1234.3776 
 326   0.0000      45.515893      1238.5504 

                    ********************************
                    * MULLIKEN POPULATION ANALYSIS *
                    ********************************

-----------------------
MULLIKEN ATOMIC CHARGES
-----------------------
   0 O :   -0.400683
   1 C :    0.188771
   2 C :    0.140537
   3 C :   -0.116586
   4 N :   -0.364832
   5 C :   -0.079728
   6 C :    0.377087
   7 O :   -0.503882
   8 N :   -0.393376
   9 H :    0.095146
  10 H :    0.084792
  11 H :    0.120628
  12 H :    0.112995
  13 H :    0.203910
  14 H :    0.140561
  15 H :    0.120298
  16 H :    0.274363
Sum of atomic charges:   -0.0000000

--------------------------------
MULLIKEN REDUCED ORBITAL CHARGES
--------------------------------
  0 O s       :     3.847758  s :     3.847758
      pz      :     1.321579  p :     4.513642
      px      :     1.839669
      py      :     1.352394
      dz2     :     0.003281  d :     0.037118
      dxz     :     0.000179
      dyz     :     0.014251
      dx2y2   :     0.011281
      dxy     :     0.008126
      f0      :     0.000177  f :     0.002165
      f+1     :     0.000018
      f-1     :     0.000233
      f+2     :     0.000537
      f-2     :     0.000022
      f+3     :     0.000573
      f-3     :     0.000606
  1 C s       :     3.222380  s :     3.222380
      pz      :     0.646827  p :     2.386281
      px      :     0.942153
      py      :     0.797301
      dz2     :     0.007684  d :     0.186101
      dxz     :     0.007664
      dyz     :     0.047362
      dx2y2   :     0.023959
      dxy     :     0.099433
      f0      :     0.002025  f :     0.016467
      f+1     :     0.000775
      f-1     :     0.001354
      f+2     :     0.002617
      f-2     :     0.000654
      f+3     :     0.005653
      f-3     :     0.003388
  2 C s       :     3.013364  s :     3.013364
      pz      :     0.959781  p :     2.678471
      px      :     0.814337
      py      :     0.904353
      dz2     :     0.027569  d :     0.156515
      dxz     :     0.022032
      dyz     :     0.038585
      dx2y2   :     0.034152
      dxy     :     0.034176
      f0      :     0.001458  f :     0.011113
      f+1     :     0.000969
      f-1     :     0.001839
      f+2     :     0.000470
      f-2     :     0.001884
      f+3     :     0.002037
      f-3     :     0.002456
  3 C s       :     3.176518  s :     3.176518
      pz      :     0.957266  p :     2.800926
      px      :     0.870180
      py      :     0.973479
      dz2     :     0.022490  d :     0.130009
      dxz     :     0.024967
      dyz     :     0.033094
      dx2y2   :     0.018769
      dxy     :     0.030689
      f0      :     0.001274  f :     0.009133
      f+1     :     0.000756
      f-1     :     0.001754
      f+2     :     0.001014
      f-2     :     0.001207
      f+3     :     0.001661
      f-3     :     0.001468
  4 N s       :     3.466247  s :     3.466247
      pz      :     1.477841  p :     3.826808
      px      :     1.050965
      py      :     1.298002
      dz2     :     0.012542  d :     0.068118
      dxz     :     0.009397
      dyz     :     0.010085
      dx2y2   :     0.012727
      dxy     :     0.023367
      f0      :     0.000256  f :     0.003658
      f+1     :     0.000475
      f-1     :     0.000783
      f+2     :     0.000266
      f-2     :     0.000464
      f+3     :     0.000652
      f-3     :     0.000763
  5 C s       :     3.128590  s :     3.128590
      pz      :     1.033263  p :     2.826827
      px      :     0.943210
      py      :     0.850355
      dz2     :     0.017344  d :     0.115806
      dxz     :     0.013717
      dyz     :     0.032505
      dx2y2   :     0.026864
      dxy     :     0.025376
      f0      :     0.001327  f :     0.008505
      f+1     :     0.000477
      f-1     :     0.001189
      f+2     :     0.000693
      f-2     :     0.001513
      f+3     :     0.001488
      f-3     :     0.001818
  6 C s       :     3.045845  s :     3.045845
      pz      :     0.707351  p :     2.274724
      px      :     0.722505
      py      :     0.844868
      dz2     :     0.028525  d :     0.278810
      dxz     :     0.059979
      dyz     :     0.046567
      dx2y2   :     0.107099
      dxy     :     0.036639
      f0      :     0.002611  f :     0.023535
      f+1     :     0.003159
      f-1     :     0.001435
      f+2     :     0.001770
      f-2     :     0.004605
      f+3     :     0.004996
      f-3     :     0.004958
  7 O s       :     3.835220  s :     3.835220
      pz      :     1.598686  p :     4.630118
      px      :     1.512134
      py      :     1.519298
      dz2     :     0.003839  d :     0.036354
      dxz     :     0.005825
      dyz     :     0.005137
      dx2y2   :     0.009591
      dxy     :     0.011962
      f0      :     0.000240  f :     0.002190
      f+1     :     0.000190
      f-1     :     0.000167
      f+2     :     0.000011
      f-2     :     0.000408
      f+3     :     0.000581
      f-3     :     0.000594
  8 N s       :     3.436476  s :     3.436476
      pz      :     1.537616  p :     3.890077
      px      :     1.159568
      py      :     1.192893
      dz2     :     0.006159  d :     0.062008
      dxz     :     0.012025
      dyz     :     0.008173
      dx2y2   :     0.018360
      dxy     :     0.017291
      f0      :     0.000690  f :     0.004816
      f+1     :     0.000822
      f-1     :     0.000320
      f+2     :     0.000866
      f-2     :     0.000631
      f+3     :     0.000679
      f-3     :     0.000808
  9 H s       :     0.883898  s :     0.883898
      pz      :     0.001823  p :     0.020955
      px      :     0.012687
      py      :     0.006445
 10 H s       :     0.893216  s :     0.893216
      pz      :     0.011606  p :     0.021992
      px      :     0.002870
      py      :     0.007516
 11 H s       :     0.857522  s :     0.857522
      pz      :     0.003418  p :     0.021851
      px      :     0.008925
      py      :     0.009508
 12 H s       :     0.865158  s :     0.865158
      pz      :     0.012080  p :     0.021847
      px      :     0.003495
      py      :     0.006272
 13 H s       :     0.758398  s :     0.758398
      pz      :     0.016874  p :     0.037692
      px      :     0.005756
      py      :     0.015061
 14 H s       :     0.837091  s :     0.837091
      pz      :     0.004021  p :     0.022348
      px      :     0.013550
      py      :     0.004776
 15 H s       :     0.857150  s :     0.857150
      pz      :     0.014901  p :     0.022552
      px      :     0.003437
      py      :     0.004214
 16 H s       :     0.687740  s :     0.687740
      pz      :     0.012306  p :     0.037897
      px      :     0.006034
      py      :     0.019557


                     *******************************
                     * LOEWDIN POPULATION ANALYSIS *
                     *******************************

----------------------
LOEWDIN ATOMIC CHARGES
----------------------
   0 O :    0.072388
   1 C :   -0.211451
   2 C :   -0.274962
   3 C :   -0.251347
   4 N :   -0.028140
   5 C :   -0.230855
   6 C :   -0.385655
   7 O :    0.005743
   8 N :    0.125922
   9 H :    0.119733
  10 H :    0.147004
  11 H :    0.128372
  12 H :    0.133875
  13 H :    0.165553
  14 H :    0.141423
  15 H :    0.143619
  16 H :    0.198779

-------------------------------
LOEWDIN REDUCED ORBITAL CHARGES
-------------------------------
  0 O s       :     3.409148  s :     3.409148
      pz      :     1.246863  p :     4.440440
      px      :     1.676184
      py      :     1.517393
      dz2     :     0.007793  d :     0.072081
      dxz     :     0.000320
      dyz     :     0.014103
      dx2y2   :     0.025607
      dxy     :     0.024257
      f0      :     0.000325  f :     0.005943
      f+1     :     0.000138
      f-1     :     0.000835
      f+2     :     0.000697
      f-2     :     0.000065
      f+3     :     0.002142
      f-3     :     0.001741
  1 C s       :     2.826168  s :     2.826168
      pz      :     0.635775  p :     2.629796
      px      :     1.002173
      py      :     0.991848
      dz2     :     0.042922  d :     0.658004
      dxz     :     0.030526
      dyz     :     0.114768
      dx2y2   :     0.151053
      dxy     :     0.318735
      f0      :     0.007466  f :     0.097484
      f+1     :     0.003359
      f-1     :     0.009811
      f+2     :     0.014994
      f-2     :     0.003679
      f+3     :     0.041249
      f-3     :     0.016926
  2 C s       :     2.737502  s :     2.737502
      pz      :     1.003455  p :     2.886316
      px      :     0.924844
      py      :     0.958017
      dz2     :     0.101504  d :     0.583964
      dxz     :     0.078286
      dyz     :     0.141226
      dx2y2   :     0.121860
      dxy     :     0.141087
      f0      :     0.009225  f :     0.067180
      f+1     :     0.007114
      f-1     :     0.007220
      f+2     :     0.005710
      f-2     :     0.011356
      f+3     :     0.014341
      f-3     :     0.012215
  3 C s       :     2.779054  s :     2.779054
      pz      :     1.005799  p :     2.931130
      px      :     0.928472
      py      :     0.996859
      dz2     :     0.094617  d :     0.486155
      dxz     :     0.082255
      dyz     :     0.108491
      dx2y2   :     0.069916
      dxy     :     0.130875
      f0      :     0.008196  f :     0.055009
      f+1     :     0.006427
      f-1     :     0.006091
      f+2     :     0.008157
      f-2     :     0.006971
      f+3     :     0.011434
      f-3     :     0.007735
  4 N s       :     3.012456  s :     3.012456
      pz      :     1.388746  p :     3.786057
      px      :     1.126381
      py      :     1.270930
      dz2     :     0.027725  d :     0.214625
      dxz     :     0.031649
      dyz     :     0.038237
      dx2y2   :     0.053172
      dxy     :     0.063841
      f0      :     0.001566  f :     0.015002
      f+1     :     0.001773
      f-1     :     0.001540
      f+2     :     0.001114
      f-2     :     0.002199
      f+3     :     0.003800
      f-3     :     0.003009
  5 C s       :     2.782394  s :     2.782394
      pz      :     1.030183  p :     2.948132
      px      :     0.956366
      py      :     0.961583
      dz2     :     0.084082  d :     0.449491
      dxz     :     0.042432
      dyz     :     0.107888
      dx2y2   :     0.107481
      dxy     :     0.107607
      f0      :     0.006589  f :     0.050839
      f+1     :     0.003607
      f-1     :     0.005789
      f+2     :     0.005594
      f-2     :     0.010186
      f+3     :     0.009377
      f-3     :     0.009697
  6 C s       :     2.745920  s :     2.745920
      pz      :     0.761476  p :     2.584451
      px      :     0.886129
      py      :     0.936846
      dz2     :     0.116118  d :     0.918594
      dxz     :     0.185094
      dyz     :     0.135057
      dx2y2   :     0.290262
      dxy     :     0.192064
      f0      :     0.014342  f :     0.136689
      f+1     :     0.017550
      f-1     :     0.008829
      f+2     :     0.008690
      f-2     :     0.026430
      f+3     :     0.029397
      f-3     :     0.031450
  7 O s       :     3.403247  s :     3.403247
      pz      :     1.478910  p :     4.519064
      px      :     1.519132
      py      :     1.521022
      dz2     :     0.008497  d :     0.066349
      dxz     :     0.007889
      dyz     :     0.006967
      dx2y2   :     0.016877
      dxy     :     0.026120
      f0      :     0.000478  f :     0.005597
      f+1     :     0.000587
      f-1     :     0.000517
      f+2     :     0.000021
      f-2     :     0.000784
      f+3     :     0.001600
      f-3     :     0.001609
  8 N s       :     2.919397  s :     2.919397
      pz      :     1.376082  p :     3.736704
      px      :     1.186678
      py      :     1.173943
      dz2     :     0.015746  d :     0.204141
      dxz     :     0.038782
      dyz     :     0.030229
      dx2y2   :     0.065592
      dxy     :     0.053792
      f0      :     0.001878  f :     0.013836
      f+1     :     0.001701
      f-1     :     0.000494
      f+2     :     0.001841
      f-2     :     0.002747
      f+3     :     0.002775
      f-3     :     0.002400
  9 H s       :     0.826346  s :     0.826346
      pz      :     0.005915  p :     0.053921
      px      :     0.031086
      py      :     0.016920
 10 H s       :     0.798255  s :     0.798255
      pz      :     0.026736  p :     0.054741
      px      :     0.009142
      py      :     0.018863
 11 H s       :     0.814166  s :     0.814166
      pz      :     0.011560  p :     0.057462
      px      :     0.021885
      py      :     0.024017
 12 H s       :     0.808679  s :     0.808679
      pz      :     0.028932  p :     0.057446
      px      :     0.010507
      py      :     0.018007
 13 H s       :     0.726361  s :     0.726361
      pz      :     0.053602  p :     0.108086
      px      :     0.018175
      py      :     0.036309
 14 H s       :     0.799624  s :     0.799624
      pz      :     0.013568  p :     0.058954
      px      :     0.031957
      py      :     0.013429
 15 H s       :     0.798367  s :     0.798367
      pz      :     0.034624  p :     0.058014
      px      :     0.010853
      py      :     0.012537
 16 H s       :     0.691482  s :     0.691482
      pz      :     0.036644  p :     0.109739
      px      :     0.017911
      py      :     0.055184


                      *****************************
                      * MAYER POPULATION ANALYSIS *
                      *****************************

  NA   - Mulliken gross atomic population
  ZA   - Total nuclear charge
  QA   - Mulliken gross atomic charge
  VA   - Mayer's total valence
  BVA  - Mayer's bonded valence
  FA   - Mayer's free valence

  ATOM       NA         ZA         QA         VA         BVA        FA
  0 O      8.4007     8.0000    -0.4007     2.0181     2.0181    -0.0000
  1 C      5.8112     6.0000     0.1888     3.9798     3.9798    -0.0000
  2 C      5.8595     6.0000     0.1405     3.7085     3.7085     0.0000
  3 C      6.1166     6.0000    -0.1166     3.9815     3.9815     0.0000
  4 N      7.3648     7.0000    -0.3648     2.8727     2.8727    -0.0000
  5 C      6.0797     6.0000    -0.0797     3.8756     3.8756    -0.0000
  6 C      5.6229     6.0000     0.3771     4.1855     4.1855    -0.0000
  7 O      8.5039     8.0000    -0.5039     1.9754     1.9754     0.0000
  8 N      7.3934     7.0000    -0.3934     2.9824     2.9824     0.0000
  9 H      0.9049     1.0000     0.0951     0.9682     0.9682    -0.0000
 10 H      0.9152     1.0000     0.0848     0.9726     0.9726     0.0000
 11 H      0.8794     1.0000     0.1206     0.9739     0.9739     0.0000
 12 H      0.8870     1.0000     0.1130     0.9787     0.9787     0.0000
 13 H      0.7961     1.0000     0.2039     0.9514     0.9514    -0.0000
 14 H      0.8594     1.0000     0.1406     0.9797     0.9797    -0.0000
 15 H      0.8797     1.0000     0.1203     0.9871     0.9871    -0.0000
 16 H      0.7256     1.0000     0.2744     0.9462     0.9462     0.0000

  Mayer bond orders larger than 0.1
B(  0-O ,  1-C ) :   2.0085 B(  1-C ,  2-C ) :   0.9094 B(  1-C ,  9-H ) :   1.0033 
B(  2-C ,  3-C ) :   0.9789 B(  2-C ,  8-N ) :   0.9310 B(  2-C , 10-H ) :   0.9600 
B(  3-C ,  4-N ) :   0.9749 B(  3-C , 11-H ) :   0.9814 B(  3-C , 12-H ) :   0.9805 
B(  4-N ,  5-C ) :   0.9794 B(  4-N , 13-H ) :   0.9353 B(  5-C ,  6-C ) :   0.9655 
B(  5-C , 14-H ) :   0.9783 B(  5-C , 15-H ) :   0.9747 B(  6-C ,  7-O ) :   1.9687 
B(  6-C ,  8-N ) :   1.2125 B(  8-N , 16-H ) :   0.8883 

-------
TIMINGS
-------

Total SCF time: 0 days 0 hours 2 min 23 sec 

Total time                  ....     143.224 sec
Sum of individual times     ....     147.165 sec  (102.8%)

Fock matrix formation       ....     141.728 sec  ( 99.0%)
Diagonalization             ....       0.668 sec  (  0.5%)
Density matrix formation    ....       0.045 sec  (  0.0%)
Population analysis         ....       0.148 sec  (  0.1%)
Initial guess               ....       2.738 sec  (  1.9%)
Orbital Transformation      ....       0.000 sec  (  0.0%)
Orbital Orthonormalization  ....       0.000 sec  (  0.0%)
DIIS solution               ....       0.190 sec  (  0.1%)
SOSCF solution              ....       0.312 sec  (  0.2%)

   <<< Auxbasis replaced with dsgdb9nsd_050652.AUXC.tmp (Dim=804) >>> 


------------------------------------------------------------------------------
                              ORCA MP2 CALCULATION
------------------------------------------------------------------------------

Freezing NCore=18 chemical core electrons

   <<< Use J-auxbasis for calculation of Separable RI-J derivative contributions dsgdb9nsd_050652.AUXJ.tmp (Dim=827) >>> 


---------------------
RI-MP2 ENERGY+DENSITY
---------------------
Dimension of the basis                    ...  327
Memory devoted to MP2                     ... 2000 MB   
Data format for buffers                   ... DOUBLE
Compression type for matrix containers    ... UNCOMPRESSED
Overall scaling of the MP2 energy         ...   1.000e+00 Eh
Calculating two index integrals           ... done (    0.017 sec)
Cholesky decomposition of V**-1           ... done (    0.107 sec)

-----------------
RI-TRANSFORMATION (AUX index driven)
-----------------

Dimension of the orbital-basis         ... 327
Dimension of the aux-basis             ... 804
Transformation of internal MOs         ...    0-  33
Transformation of internal/external MOs...    0-  33 to   34- 326
Number Format for Storage              ... Double (8 Byte)
Integral mode                          ... Direct

First Phase: integral generation and transformation of MO indices
  Aux angular momentum 0               ... done (    0.720 sec)
  Aux angular momentum 1               ... done (    1.020 sec)
  Aux angular momentum 2               ... done (    1.102 sec)
  Aux angular momentum 3               ... done (    0.879 sec)
  Aux angular momentum 4               ... done (    0.396 sec)
Closing buffer VIJ ( 0.00 GB; CompressionRatio= 1.94)
Closing buffer VIA ( 0.06 GB; CompressionRatio= 1.00)
  Phase 1 completed in     4.215 sec
Second Phase: sorting and transformation of aux index

IJ-Transformation
Memory available                       ... 1987 MB 
Max. # MO pairs treated in a batch     ... 34    
# of internal orbitals                 ... 34
# batches for internal orbitals        ... 1
Closing buffer IJV ( 0.00 GB; CompressionRatio= 1.00)
(ij|v) transformation done in     0.187 sec

IA-Transformation
Memory available                       ... 1987 MB 
Max. # MO pairs treated in a batch     ... 34    
# of internal orbitals                 ... 34
# batches for internal orbitals        ... 1
Closing buffer IAV ( 0.06 GB; CompressionRatio= 1.00)
(ia|v) transformation done in     1.352 sec

  Phase 2 completed in     1.559 sec
RI-Integral transformation completed in     5.774 sec
Opening buffers                              ... done
Frozen core precalculation                   ... done

Starting loop over batches of integrals:

Operator 0  - window                       ... (  9- 33)x( 34-326)
Operator 0  - Memory available             ...  2000 MB
Operator 0  - Memory needed per MO         ...   3.6 MB
Operator 0  - Number of orbitals per batch ... 25
Operator 0  - Number of batches            ... 1

OPERATOR  0   PASS   0:  MOs     9 ...   33
  Reading integrals       ... ok
  Internal MO  11
  Internal MO  14
  Internal MO  17
  Internal MO  20
  Internal MO  23
  Internal MO  26
  Internal MO  29
  Internal MO  32
Time spent in pair loops =    36.090 sec
Deleting buffer (Ka|jb)[aa] ...done

-----------------------------------------------
 RI-MP2 CORRELATION ENERGY:     -1.652012725 Eh
-----------------------------------------------


---------------------
MP2 DENSITY FORMATION
---------------------

Completing the external part of the density      ... done
Storing the unrelaxed density                    ... done

Calculating G(D)                                 ... done
Completing the Lagrangian                        ... done
Solving the Z-vector equations                   ... 

------------------------------------------------------------------------------
                           ORCA CP-SCF CALCULATION
------------------------------------------------------------------------------

Input orbitals are from        ... dsgdb9nsd_050652.gbw
Input Perturbation             ... dsgdb9nsd_050652.pin.tmp
Wavefunction output            ... dsgdb9nsd_050652.pout.tmp
Perturbation mode              ... Real perturbation
Solver                         ... POPLE
Max. number of iterations      ... 128
Convergence tolerance          ... 1.000e-08
Integral handling              ... Direct
Number of perturbations        ... 1
Number of operators            ... 1
Orbital ranges used for CP-SCF:
 Operator 0:  Orbitals   0... 33  to  34...326
Variables per vector in CP-SCF ... 9962
Number of vectors sought       ... 1
     CP-SCF ITERATION   0: 
     CP-SCF ITERATION   1:      0.002237351
     CP-SCF ITERATION   2:      0.000465332
     CP-SCF ITERATION   3:      0.000028605
     CP-SCF ITERATION   4:      0.000004051
     CP-SCF ITERATION   5:      0.000000435
     CP-SCF ITERATION   6:      0.000000095
     CP-SCF ITERATION   7:      0.000000021
     CP-SCF ITERATION   8:      0.000000004
done
Finalizing the relaxed density                   ... done
Transforming P to the AO basis                   ... done
Storing the relaxed density                      ... done

                *********************************************
                * UNRELAXED MP2 DENSITY POPULATION ANALYSIS *
                *********************************************

------------------------------------------------------------------------------
                           ORCA POPULATION ANALYSIS
------------------------------------------------------------------------------
Input electron density              ... dsgdb9nsd_050652.pmp2ur
BaseName (.gbw .S,...)              ... dsgdb9nsd_050652

                    ********************************
                    * MULLIKEN POPULATION ANALYSIS *
                    ********************************

-----------------------
MULLIKEN ATOMIC CHARGES
-----------------------
   0 O :   -0.376820
   1 C :    0.164153
   2 C :    0.130619
   3 C :   -0.127373
   4 N :   -0.357859
   5 C :   -0.092510
   6 C :    0.348474
   7 O :   -0.478992
   8 N :   -0.384277
   9 H :    0.096815
  10 H :    0.089125
  11 H :    0.124268
  12 H :    0.116744
  13 H :    0.205077
  14 H :    0.143918
  15 H :    0.123852
  16 H :    0.274788
Sum of atomic charges:   -0.0000000

--------------------------------
MULLIKEN REDUCED ORBITAL CHARGES
--------------------------------
  0 O s       :     3.841359  s :     3.841359
      pz      :     1.305491  p :     4.467839
      px      :     1.821756
      py      :     1.340591
      dz2     :     0.008198  d :     0.062810
      dxz     :     0.005665
      dyz     :     0.018844
      dx2y2   :     0.016318
      dxy     :     0.013785
      f0      :     0.000526  f :     0.004812
      f+1     :     0.000348
      f-1     :     0.000607
      f+2     :     0.000905
      f-2     :     0.000404
      f+3     :     0.001011
      f-3     :     0.001011
  1 C s       :     3.220748  s :     3.220748
      pz      :     0.658510  p :     2.393599
      px      :     0.938896
      py      :     0.796193
      dz2     :     0.010636  d :     0.201906
      dxz     :     0.011898
      dyz     :     0.049163
      dx2y2   :     0.027754
      dxy     :     0.102456
      f0      :     0.002258  f :     0.019594
      f+1     :     0.001064
      f-1     :     0.001714
      f+2     :     0.002937
      f-2     :     0.001292
      f+3     :     0.006379
      f-3     :     0.003951
  2 C s       :     3.011224  s :     3.011224
      pz      :     0.952775  p :     2.664533
      px      :     0.812548
      py      :     0.899211
      dz2     :     0.032127  d :     0.178499
      dxz     :     0.027995
      dyz     :     0.042459
      dx2y2   :     0.038666
      dxy     :     0.037252
      f0      :     0.002097  f :     0.015125
      f+1     :     0.001503
      f-1     :     0.002322
      f+2     :     0.001079
      f-2     :     0.002543
      f+3     :     0.002683
      f-3     :     0.002897
  3 C s       :     3.173919  s :     3.173919
      pz      :     0.951884  p :     2.788414
      px      :     0.867635
      py      :     0.968894
      dz2     :     0.026894  d :     0.152158
      dxz     :     0.030292
      dyz     :     0.036541
      dx2y2   :     0.023460
      dxy     :     0.034970
      f0      :     0.001862  f :     0.012883
      f+1     :     0.001292
      f-1     :     0.002204
      f+2     :     0.001544
      f-2     :     0.001819
      f+3     :     0.002213
      f-3     :     0.001949
  4 N s       :     3.460358  s :     3.460358
      pz      :     1.463400  p :     3.792340
      px      :     1.042157
      py      :     1.286783
      dz2     :     0.018614  d :     0.098166
      dxz     :     0.015872
      dyz     :     0.016437
      dx2y2   :     0.018862
      dxy     :     0.028381
      f0      :     0.000748  f :     0.006995
      f+1     :     0.000943
      f-1     :     0.001222
      f+2     :     0.000727
      f-2     :     0.000958
      f+3     :     0.001151
      f-3     :     0.001247
  5 C s       :     3.127144  s :     3.127144
      pz      :     1.027438  p :     2.814332
      px      :     0.939754
      py      :     0.847140
      dz2     :     0.022632  d :     0.138729
      dxz     :     0.019473
      dyz     :     0.036357
      dx2y2   :     0.031175
      dxy     :     0.029091
      f0      :     0.001848  f :     0.012305
      f+1     :     0.001014
      f-1     :     0.001778
      f+2     :     0.001210
      f-2     :     0.002082
      f+3     :     0.002064
      f-3     :     0.002309
  6 C s       :     3.045080  s :     3.045080
      pz      :     0.716660  p :     2.288335
      px      :     0.726458
      py      :     0.845217
      dz2     :     0.031616  d :     0.291272
      dxz     :     0.062085
      dyz     :     0.049246
      dx2y2   :     0.108873
      dxy     :     0.039453
      f0      :     0.002936  f :     0.026839
      f+1     :     0.003567
      f-1     :     0.001917
      f+2     :     0.002268
      f-2     :     0.005055
      f+3     :     0.005569
      f-3     :     0.005527
  7 O s       :     3.829119  s :     3.829119
      pz      :     1.580177  p :     4.582043
      px      :     1.497436
      py      :     1.504431
      dz2     :     0.009192  d :     0.062965
      dxz     :     0.011248
      dyz     :     0.010546
      dx2y2   :     0.015085
      dxy     :     0.016893
      f0      :     0.000604  f :     0.004865
      f+1     :     0.000555
      f-1     :     0.000531
      f+2     :     0.000391
      f-2     :     0.000795
      f+3     :     0.000991
      f-3     :     0.000999
  8 N s       :     3.432373  s :     3.432373
      pz      :     1.518955  p :     3.848471
      px      :     1.147921
      py      :     1.181595
      dz2     :     0.013304  d :     0.095250
      dxz     :     0.018717
      dyz     :     0.014992
      dx2y2   :     0.024729
      dxy     :     0.023508
      f0      :     0.001134  f :     0.008183
      f+1     :     0.001300
      f-1     :     0.000767
      f+2     :     0.001323
      f-2     :     0.001122
      f+3     :     0.001207
      f-3     :     0.001330
  9 H s       :     0.879131  s :     0.879131
      pz      :     0.003101  p :     0.024054
      px      :     0.013469
      py      :     0.007484
 10 H s       :     0.885756  s :     0.885756
      pz      :     0.012526  p :     0.025119
      px      :     0.004038
      py      :     0.008556
 11 H s       :     0.850770  s :     0.850770
      pz      :     0.004550  p :     0.024962
      px      :     0.009958
      py      :     0.010454
 12 H s       :     0.858317  s :     0.858317
      pz      :     0.012963  p :     0.024939
      px      :     0.004623
      py      :     0.007353
 13 H s       :     0.755004  s :     0.755004
      pz      :     0.017567  p :     0.039920
      px      :     0.006676
      py      :     0.015676
 14 H s       :     0.830778  s :     0.830778
      pz      :     0.005088  p :     0.025303
      px      :     0.014383
      py      :     0.005832
 15 H s       :     0.850624  s :     0.850624
      pz      :     0.015678  p :     0.025524
      px      :     0.004532
      py      :     0.005314
 16 H s       :     0.685591  s :     0.685591
      pz      :     0.012943  p :     0.039622
      px      :     0.006781
      py      :     0.019898


                     *******************************
                     * LOEWDIN POPULATION ANALYSIS *
                     *******************************

----------------------
LOEWDIN ATOMIC CHARGES
----------------------
   0 O :    0.088835
   1 C :   -0.226449
   2 C :   -0.279825
   3 C :   -0.256748
   4 N :   -0.024507
   5 C :   -0.238896
   6 C :   -0.399399
   7 O :    0.021942
   8 N :    0.127482
   9 H :    0.120381
  10 H :    0.148350
  11 H :    0.130122
  12 H :    0.135624
  13 H :    0.165928
  14 H :    0.143076
  15 H :    0.145160
  16 H :    0.198927

-------------------------------
LOEWDIN REDUCED ORBITAL CHARGES
-------------------------------
  0 O s       :     3.404524  s :     3.404524
      pz      :     1.231914  p :     4.396262
      px      :     1.660953
      py      :     1.503396
      dz2     :     0.013191  d :     0.101170
      dxz     :     0.005751
      dyz     :     0.020065
      dx2y2   :     0.032164
      dxy     :     0.030000
      f0      :     0.000750  f :     0.009209
      f+1     :     0.000475
      f-1     :     0.001338
      f+2     :     0.001188
      f-2     :     0.000454
      f+3     :     0.002659
      f-3     :     0.002346
  1 C s       :     2.824313  s :     2.824313
      pz      :     0.644587  p :     2.627308
      px      :     0.995719
      py      :     0.987002
      dz2     :     0.047554  d :     0.671704
      dxz     :     0.034489
      dyz     :     0.115402
      dx2y2   :     0.155319
      dxy     :     0.318940
      f0      :     0.008023  f :     0.103125
      f+1     :     0.003921
      f-1     :     0.010651
      f+2     :     0.015468
      f-2     :     0.004505
      f+3     :     0.041698
      f-3     :     0.018859
  2 C s       :     2.736531  s :     2.736531
      pz      :     0.994434  p :     2.863450
      px      :     0.918415
      py      :     0.950601
      dz2     :     0.106318  d :     0.605991
      dxz     :     0.083130
      dyz     :     0.145772
      dx2y2   :     0.125241
      dxy     :     0.145530
      f0      :     0.010009  f :     0.073853
      f+1     :     0.007981
      f-1     :     0.008469
      f+2     :     0.006618
      f-2     :     0.012163
      f+3     :     0.015203
      f-3     :     0.013409
  3 C s       :     2.777803  s :     2.777803
      pz      :     0.997972  p :     2.910044
      px      :     0.922607
      py      :     0.989465
      dz2     :     0.099168  d :     0.507946
      dxz     :     0.086285
      dyz     :     0.112962
      dx2y2   :     0.074620
      dxy     :     0.134911
      f0      :     0.008882  f :     0.060955
      f+1     :     0.007268
      f-1     :     0.007229
      f+2     :     0.008897
      f-2     :     0.007754
      f+3     :     0.012140
      f-3     :     0.008784
  4 N s       :     3.010109  s :     3.010109
      pz      :     1.375161  p :     3.749365
      px      :     1.115401
      py      :     1.258803
      dz2     :     0.034718  d :     0.245784
      dxz     :     0.037485
      dyz     :     0.044715
      dx2y2   :     0.058722
      dxy     :     0.070144
      f0      :     0.002102  f :     0.019250
      f+1     :     0.002366
      f-1     :     0.002180
      f+2     :     0.001643
      f-2     :     0.002772
      f+3     :     0.004444
      f-3     :     0.003744
  5 C s       :     2.781371  s :     2.781371
      pz      :     1.022508  p :     2.927215
      px      :     0.950123
      py      :     0.954584
      dz2     :     0.089969  d :     0.473356
      dxz     :     0.047533
      dyz     :     0.112154
      dx2y2   :     0.111275
      dxy     :     0.112425
      f0      :     0.007418  f :     0.056954
      f+1     :     0.004354
      f-1     :     0.006855
      f+2     :     0.006425
      f-2     :     0.010856
      f+3     :     0.010270
      f-3     :     0.010776
  6 C s       :     2.744901  s :     2.744901
      pz      :     0.766896  p :     2.585751
      px      :     0.884961
      py      :     0.933895
      dz2     :     0.118750  d :     0.925670
      dxz     :     0.185758
      dyz     :     0.137156
      dx2y2   :     0.289157
      dxy     :     0.194850
      f0      :     0.014949  f :     0.143076
      f+1     :     0.018268
      f-1     :     0.009670
      f+2     :     0.010144
      f-2     :     0.026973
      f+3     :     0.030627
      f-3     :     0.032444
  7 O s       :     3.398991  s :     3.398991
      pz      :     1.462792  p :     4.473647
      px      :     1.504536
      py      :     1.506319
      dz2     :     0.014314  d :     0.096517
      dxz     :     0.013799
      dyz     :     0.012840
      dx2y2   :     0.022973
      dxy     :     0.032591
      f0      :     0.000901  f :     0.008903
      f+1     :     0.001020
      f-1     :     0.000947
      f+2     :     0.000413
      f-2     :     0.001271
      f+3     :     0.002167
      f-3     :     0.002183
  8 N s       :     2.918442  s :     2.918442
      pz      :     1.360284  p :     3.697478
      px      :     1.174088
      py      :     1.163106
      dz2     :     0.023388  d :     0.238168
      dxz     :     0.045970
      dyz     :     0.036762
      dx2y2   :     0.071747
      dxy     :     0.060301
      f0      :     0.002444  f :     0.018430
      f+1     :     0.002391
      f-1     :     0.001012
      f+2     :     0.002559
      f-2     :     0.003333
      f+3     :     0.003502
      f-3     :     0.003187
  9 H s       :     0.820272  s :     0.820272
      pz      :     0.007428  p :     0.059347
      px      :     0.033099
      py      :     0.018820
 10 H s       :     0.791205  s :     0.791205
      pz      :     0.029008  p :     0.060445
      px      :     0.010618
      py      :     0.020820
 11 H s       :     0.807022  s :     0.807022
      pz      :     0.012881  p :     0.062856
      px      :     0.023978
      py      :     0.025997
 12 H s       :     0.801480  s :     0.801480
      pz      :     0.031180  p :     0.062896
      px      :     0.011967
      py      :     0.019749
 13 H s       :     0.721445  s :     0.721445
      pz      :     0.055590  p :     0.112627
      px      :     0.019358
      py      :     0.037679
 14 H s       :     0.792847  s :     0.792847
      pz      :     0.014876  p :     0.064077
      px      :     0.034247
      py      :     0.014955
 15 H s       :     0.791605  s :     0.791605
      pz      :     0.037048  p :     0.063235
      px      :     0.012181
      py      :     0.014006
 16 H s       :     0.687705  s :     0.687705
      pz      :     0.037530  p :     0.113368
      px      :     0.018985
      py      :     0.056854


                      *****************************
                      * MAYER POPULATION ANALYSIS *
                      *****************************

  NA   - Mulliken gross atomic population
  ZA   - Total nuclear charge
  QA   - Mulliken gross atomic charge
  VA   - Mayer's total valence
  BVA  - Mayer's bonded valence
  FA   - Mayer's free valence

  ATOM       NA         ZA         QA         VA         BVA        FA
  0 O      8.3768     8.0000    -0.3768     2.3102     1.8580     0.4523
  1 C      5.8358     6.0000     0.1642     4.0682     3.7263     0.3419
  2 C      5.8694     6.0000     0.1306     3.8034     3.4826     0.3208
  3 C      6.1274     6.0000    -0.1274     4.0848     3.7720     0.3128
  4 N      7.3579     7.0000    -0.3579     3.0934     2.6977     0.3957
  5 C      6.0925     6.0000    -0.0925     3.9829     3.6721     0.3107
  6 C      5.6515     6.0000     0.3485     4.2549     3.9139     0.3410
  7 O      8.4790     8.0000    -0.4790     2.2840     1.8292     0.4548
  8 N      7.3843     7.0000    -0.3843     3.2125     2.8021     0.4104
  9 H      0.9032     1.0000     0.0968     0.9780     0.9262     0.0519
 10 H      0.9109     1.0000     0.0891     0.9819     0.9278     0.0541
 11 H      0.8757     1.0000     0.1243     0.9820     0.9326     0.0494
 12 H      0.8833     1.0000     0.1167     0.9867     0.9369     0.0497
 13 H      0.7949     1.0000     0.2051     0.9582     0.9060     0.0522
 14 H      0.8561     1.0000     0.1439     0.9871     0.9386     0.0484
 15 H      0.8761     1.0000     0.1239     0.9947     0.9450     0.0497
 16 H      0.7252     1.0000     0.2748     0.9519     0.9036     0.0483

  Mayer bond orders larger than 0.1
B(  0-O ,  1-C ) :   1.8557 B(  1-C ,  2-C ) :   0.8531 B(  1-C ,  9-H ) :   0.9646 
B(  2-C ,  3-C ) :   0.9180 B(  2-C ,  8-N ) :   0.8735 B(  2-C , 10-H ) :   0.9193 
B(  3-C ,  4-N ) :   0.9131 B(  3-C , 11-H ) :   0.9422 B(  3-C , 12-H ) :   0.9407 
B(  4-N ,  5-C ) :   0.9167 B(  4-N , 13-H ) :   0.8921 B(  5-C ,  6-C ) :   0.9077 
B(  5-C , 14-H ) :   0.9398 B(  5-C , 15-H ) :   0.9356 B(  6-C ,  7-O ) :   1.8355 
B(  6-C ,  8-N ) :   1.1401 B(  8-N , 16-H ) :   0.8503 


                *******************************************
                * RELAXED MP2 DENSITY POPULATION ANALYSIS *
                *******************************************

------------------------------------------------------------------------------
                           ORCA POPULATION ANALYSIS
------------------------------------------------------------------------------
Input electron density              ... dsgdb9nsd_050652.pmp2re
BaseName (.gbw .S,...)              ... dsgdb9nsd_050652

                    ********************************
                    * MULLIKEN POPULATION ANALYSIS *
                    ********************************

-----------------------
MULLIKEN ATOMIC CHARGES
-----------------------
   0 O :   -0.262886
   1 C :    0.079897
   2 C :    0.052025
   3 C :   -0.183455
   4 N :   -0.315276
   5 C :   -0.172049
   6 C :    0.210781
   7 O :   -0.349221
   8 N :   -0.298562
   9 H :    0.093193
  10 H :    0.110563
  11 H :    0.140815
  12 H :    0.134294
  13 H :    0.210330
  14 H :    0.156541
  15 H :    0.138278
  16 H :    0.254733
Sum of atomic charges:   -0.0000000

--------------------------------
MULLIKEN REDUCED ORBITAL CHARGES
--------------------------------
  0 O s       :     3.823550  s :     3.823550
      pz      :     1.258502  p :     4.374897
      px      :     1.773967
      py      :     1.342428
      dz2     :     0.007975  d :     0.059774
      dxz     :     0.005673
      dyz     :     0.017033
      dx2y2   :     0.014619
      dxy     :     0.014475
      f0      :     0.000493  f :     0.004665
      f+1     :     0.000348
      f-1     :     0.000563
      f+2     :     0.000887
      f-2     :     0.000405
      f+3     :     0.001031
      f-3     :     0.000938
  1 C s       :     3.235458  s :     3.235458
      pz      :     0.725604  p :     2.476525
      px      :     0.958872
      py      :     0.792049
      dz2     :     0.011080  d :     0.189961
      dxz     :     0.012302
      dyz     :     0.039421
      dx2y2   :     0.028972
      dxy     :     0.098186
      f0      :     0.001993  f :     0.018159
      f+1     :     0.000979
      f-1     :     0.001708
      f+2     :     0.002544
      f-2     :     0.001252
      f+3     :     0.006028
      f-3     :     0.003654
  2 C s       :     3.049068  s :     3.049068
      pz      :     0.963295  p :     2.717742
      px      :     0.844589
      py      :     0.909858
      dz2     :     0.029555  d :     0.166880
      dxz     :     0.029304
      dyz     :     0.037493
      dx2y2   :     0.038000
      dxy     :     0.032530
      f0      :     0.002075  f :     0.014285
      f+1     :     0.001392
      f-1     :     0.002068
      f+2     :     0.001008
      f-2     :     0.002514
      f+3     :     0.002641
      f-3     :     0.002587
  3 C s       :     3.195779  s :     3.195779
      pz      :     0.970762  p :     2.832730
      px      :     0.879731
      py      :     0.982237
      dz2     :     0.024926  d :     0.142728
      dxz     :     0.031840
      dyz     :     0.031385
      dx2y2   :     0.021842
      dxy     :     0.032734
      f0      :     0.001849  f :     0.012219
      f+1     :     0.001223
      f-1     :     0.001966
      f+2     :     0.001432
      f-2     :     0.001792
      f+3     :     0.002127
      f-3     :     0.001830
  4 N s       :     3.456688  s :     3.456688
      pz      :     1.432466  p :     3.759254
      px      :     1.034745
      py      :     1.292043
      dz2     :     0.016790  d :     0.092563
      dxz     :     0.016456
      dyz     :     0.015941
      dx2y2   :     0.018844
      dxy     :     0.024532
      f0      :     0.000755  f :     0.006771
      f+1     :     0.000885
      f-1     :     0.001148
      f+2     :     0.000718
      f-2     :     0.000964
      f+3     :     0.001134
      f-3     :     0.001167
  5 C s       :     3.152927  s :     3.152927
      pz      :     1.052942  p :     2.877146
      px      :     0.955323
      py      :     0.868880
      dz2     :     0.021807  d :     0.130303
      dxz     :     0.019596
      dyz     :     0.032661
      dx2y2   :     0.029385
      dxy     :     0.026854
      f0      :     0.001725  f :     0.011673
      f+1     :     0.001002
      f-1     :     0.001768
      f+2     :     0.001031
      f-2     :     0.001985
      f+3     :     0.002018
      f-3     :     0.002144
  6 C s       :     3.051409  s :     3.051409
      pz      :     0.805310  p :     2.436663
      px      :     0.757760
      py      :     0.873594
      dz2     :     0.032322  d :     0.276102
      dxz     :     0.057821
      dyz     :     0.044758
      dx2y2   :     0.099313
      dxy     :     0.041888
      f0      :     0.002702  f :     0.025045
      f+1     :     0.003311
      f-1     :     0.001913
      f+2     :     0.002069
      f-2     :     0.004633
      f+3     :     0.005227
      f-3     :     0.005189
  7 O s       :     3.802889  s :     3.802889
      pz      :     1.521957  p :     4.481425
      px      :     1.478107
      py      :     1.481361
      dz2     :     0.008699  d :     0.060166
      dxz     :     0.011026
      dyz     :     0.010326
      dx2y2   :     0.015064
      dxy     :     0.015051
      f0      :     0.000604  f :     0.004741
      f+1     :     0.000530
      f-1     :     0.000505
      f+2     :     0.000391
      f-2     :     0.000794
      f+3     :     0.000960
      f-3     :     0.000956
  8 N s       :     3.422671  s :     3.422671
      pz      :     1.479874  p :     3.776695
      px      :     1.144638
      py      :     1.152183
      dz2     :     0.013186  d :     0.091325
      dxz     :     0.017908
      dyz     :     0.015127
      dx2y2   :     0.023557
      dxy     :     0.021548
      f0      :     0.001089  f :     0.007870
      f+1     :     0.001294
      f-1     :     0.000736
      f+2     :     0.001213
      f-2     :     0.001111
      f+3     :     0.001166
      f-3     :     0.001261
  9 H s       :     0.884119  s :     0.884119
      pz      :     0.003403  p :     0.022688
      px      :     0.012110
      py      :     0.007176
 10 H s       :     0.865359  s :     0.865359
      pz      :     0.011550  p :     0.024078
      px      :     0.004352
      py      :     0.008176
 11 H s       :     0.835363  s :     0.835363
      pz      :     0.004792  p :     0.023822
      px      :     0.009328
      py      :     0.009702
 12 H s       :     0.841969  s :     0.841969
      pz      :     0.011866  p :     0.023737
      px      :     0.004752
      py      :     0.007119
 13 H s       :     0.750525  s :     0.750525
      pz      :     0.016866  p :     0.039145
      px      :     0.006935
      py      :     0.015345
 14 H s       :     0.819380  s :     0.819380
      pz      :     0.005307  p :     0.024079
      px      :     0.012990
      py      :     0.005782
 15 H s       :     0.837479  s :     0.837479
      pz      :     0.014099  p :     0.024244
      px      :     0.004703
      py      :     0.005441
 16 H s       :     0.706488  s :     0.706488
      pz      :     0.012902  p :     0.038780
      px      :     0.007070
      py      :     0.018807


                     *******************************
                     * LOEWDIN POPULATION ANALYSIS *
                     *******************************

----------------------
LOEWDIN ATOMIC CHARGES
----------------------
   0 O :    0.144328
   1 C :   -0.270679
   2 C :   -0.303421
   3 C :   -0.279781
   4 N :   -0.016277
   5 C :   -0.270845
   6 C :   -0.461418
   7 O :    0.084335
   8 N :    0.143182
   9 H :    0.119976
  10 H :    0.157880
  11 H :    0.138901
  12 H :    0.143775
  13 H :    0.171831
  14 H :    0.149481
  15 H :    0.151356
  16 H :    0.197375

-------------------------------
LOEWDIN REDUCED ORBITAL CHARGES
-------------------------------
  0 O s       :     3.406722  s :     3.406722
      pz      :     1.198571  p :     4.338164
      px      :     1.634349
      py      :     1.505243
      dz2     :     0.013252  d :     0.101429
      dxz     :     0.005770
      dyz     :     0.020257
      dx2y2   :     0.031186
      dxy     :     0.030964
      f0      :     0.000787  f :     0.009357
      f+1     :     0.000475
      f-1     :     0.001342
      f+2     :     0.001282
      f-2     :     0.000456
      f+3     :     0.002684
      f-3     :     0.002331
  1 C s       :     2.830707  s :     2.830707
      pz      :     0.697848  p :     2.677245
      px      :     0.999583
      py      :     0.979813
      dz2     :     0.047382  d :     0.664251
      dxz     :     0.035248
      dyz     :     0.102569
      dx2y2   :     0.157148
      dxy     :     0.321905
      f0      :     0.007260  f :     0.098476
      f+1     :     0.003688
      f-1     :     0.010867
      f+2     :     0.014742
      f-2     :     0.004254
      f+3     :     0.039109
      f-3     :     0.018555
  2 C s       :     2.745247  s :     2.745247
      pz      :     0.998788  p :     2.887018
      px      :     0.930082
      py      :     0.958148
      dz2     :     0.104181  d :     0.598432
      dxz     :     0.087032
      dyz     :     0.140800
      dx2y2   :     0.124405
      dxy     :     0.142014
      f0      :     0.009820  f :     0.072723
      f+1     :     0.008019
      f-1     :     0.008155
      f+2     :     0.006579
      f-2     :     0.012004
      f+3     :     0.015067
      f-3     :     0.013079
  3 C s       :     2.784354  s :     2.784354
      pz      :     1.008013  p :     2.936066
      px      :     0.928821
      py      :     0.999232
      dz2     :     0.096674  d :     0.499414
      dxz     :     0.087993
      dyz     :     0.109127
      dx2y2   :     0.074115
      dxy     :     0.131504
      f0      :     0.008746  f :     0.059947
      f+1     :     0.007281
      f-1     :     0.006959
      f+2     :     0.008882
      f-2     :     0.007485
      f+3     :     0.011905
      f-3     :     0.008690
  4 N s       :     3.015123  s :     3.015123
      pz      :     1.364966  p :     3.737901
      px      :     1.116901
      py      :     1.256034
      dz2     :     0.033403  d :     0.243890
      dxz     :     0.039026
      dyz     :     0.043753
      dx2y2   :     0.059625
      dxy     :     0.068084
      f0      :     0.002110  f :     0.019363
      f+1     :     0.002362
      f-1     :     0.002143
      f+2     :     0.001653
      f-2     :     0.002809
      f+3     :     0.004516
      f-3     :     0.003769
  5 C s       :     2.788956  s :     2.788956
      pz      :     1.035711  p :     2.957583
      px      :     0.957370
      py      :     0.964502
      dz2     :     0.090901  d :     0.468054
      dxz     :     0.047259
      dyz     :     0.109690
      dx2y2   :     0.110127
      dxy     :     0.110077
      f0      :     0.007150  f :     0.056252
      f+1     :     0.004375
      f-1     :     0.007124
      f+2     :     0.006263
      f-2     :     0.010549
      f+3     :     0.010137
      f-3     :     0.010653
  6 C s       :     2.748070  s :     2.748070
      pz      :     0.822163  p :     2.661882
      px      :     0.894640
      py      :     0.945080
      dz2     :     0.117115  d :     0.915516
      dxz     :     0.183183
      dyz     :     0.132392
      dx2y2   :     0.286682
      dxy     :     0.196143
      f0      :     0.013968  f :     0.135950
      f+1     :     0.016957
      f-1     :     0.009647
      f+2     :     0.009912
      f-2     :     0.025383
      f+3     :     0.028705
      f-3     :     0.031378
  7 O s       :     3.400899  s :     3.400899
      pz      :     1.424973  p :     4.408155
      px      :     1.490935
      py      :     1.492246
      dz2     :     0.013934  d :     0.097520
      dxz     :     0.014685
      dyz     :     0.013534
      dx2y2   :     0.024271
      dxy     :     0.031096
      f0      :     0.000966  f :     0.009092
      f+1     :     0.001007
      f-1     :     0.000935
      f+2     :     0.000414
      f-2     :     0.001378
      f+3     :     0.002204
      f-3     :     0.002189
  8 N s       :     2.927795  s :     2.927795
      pz      :     1.336152  p :     3.667621
      px      :     1.171952
      py      :     1.159517
      dz2     :     0.025181  d :     0.242625
      dxz     :     0.047091
      dyz     :     0.037095
      dx2y2   :     0.072750
      dxy     :     0.060508
      f0      :     0.002464  f :     0.018777
      f+1     :     0.002619
      f-1     :     0.001020
      f+2     :     0.002550
      f-2     :     0.003329
      f+3     :     0.003546
      f-3     :     0.003249
  9 H s       :     0.819475  s :     0.819475
      pz      :     0.008468  p :     0.060548
      px      :     0.032481
      py      :     0.019600
 10 H s       :     0.780152  s :     0.780152
      pz      :     0.029149  p :     0.061968
      px      :     0.011492
      py      :     0.021328
 11 H s       :     0.797242  s :     0.797242
      pz      :     0.013473  p :     0.063856
      px      :     0.024269
      py      :     0.026114
 12 H s       :     0.792514  s :     0.792514
      pz      :     0.031109  p :     0.063711
      px      :     0.012451
      py      :     0.020151
 13 H s       :     0.714776  s :     0.714776
      pz      :     0.056079  p :     0.113393
      px      :     0.019872
      py      :     0.037443
 14 H s       :     0.785849  s :     0.785849
      pz      :     0.015478  p :     0.064670
      px      :     0.033783
      py      :     0.015408
 15 H s       :     0.784815  s :     0.784815
      pz      :     0.036561  p :     0.063829
      px      :     0.012673
      py      :     0.014595
 16 H s       :     0.690139  s :     0.690139
      pz      :     0.036889  p :     0.112487
      px      :     0.019804
      py      :     0.055794


                      *****************************
                      * MAYER POPULATION ANALYSIS *
                      *****************************

  NA   - Mulliken gross atomic population
  ZA   - Total nuclear charge
  QA   - Mulliken gross atomic charge
  VA   - Mayer's total valence
  BVA  - Mayer's bonded valence
  FA   - Mayer's free valence

  ATOM       NA         ZA         QA         VA         BVA        FA
  0 O      8.2629     8.0000    -0.2629     2.4440     2.0074     0.4366
  1 C      5.9201     6.0000     0.0799     4.1653     3.8362     0.3291
  2 C      5.9480     6.0000     0.0520     3.7836     3.4675     0.3161
  3 C      6.1835     6.0000    -0.1835     4.0869     3.7784     0.3085
  4 N      7.3153     7.0000    -0.3153     3.1774     2.7899     0.3875
  5 C      6.1720     6.0000    -0.1720     3.9701     3.6648     0.3053
  6 C      5.7892     6.0000     0.2108     4.3875     4.0671     0.3204
  7 O      8.3492     8.0000    -0.3492     2.4463     2.0091     0.4372
  8 N      7.2986     7.0000    -0.2986     3.2831     2.8843     0.3989
  9 H      0.9068     1.0000     0.0932     0.9695     0.9198     0.0497
 10 H      0.8894     1.0000     0.1106     0.9723     0.9202     0.0521
 11 H      0.8592     1.0000     0.1408     0.9752     0.9269     0.0483
 12 H      0.8657     1.0000     0.1343     0.9775     0.9288     0.0487
 13 H      0.7897     1.0000     0.2103     0.9516     0.8998     0.0518
 14 H      0.8435     1.0000     0.1565     0.9808     0.9333     0.0476
 15 H      0.8617     1.0000     0.1383     0.9831     0.9344     0.0487
 16 H      0.7453     1.0000     0.2547     0.9699     0.9229     0.0470

  Mayer bond orders larger than 0.1
B(  0-O ,  1-C ) :   1.9849 B(  1-C ,  2-C ) :   0.8508 B(  1-C ,  9-H ) :   0.9416 
B(  2-C ,  3-C ) :   0.9160 B(  2-C ,  8-N ) :   0.8975 B(  2-C , 10-H ) :   0.8943 
B(  3-C ,  4-N ) :   0.9602 B(  3-C , 11-H ) :   0.9265 B(  3-C , 12-H ) :   0.9236 
B(  4-N ,  5-C ) :   0.9493 B(  4-N , 13-H ) :   0.8810 B(  5-C ,  6-C ) :   0.8934 
B(  5-C , 14-H ) :   0.9272 B(  5-C , 15-H ) :   0.9187 B(  6-C ,  7-O ) :   1.9611 
B(  6-C ,  8-N ) :   1.1704 B(  8-N , 16-H ) :   0.8445 


-------
TIMINGS
-------

Total time                :  824.779 sec
Integral trafo            :    5.782 sec (  0.7%)
FC preparation            :    3.349 sec (  0.4%)
I/O of integrals          :    0.050 sec (  0.0%)
K(i,j) Operators          :    8.438 sec (  1.0%)
T(i,j) pair energies      :    0.795 sec (  0.1%)
V-calculation             :    0.017 sec (  0.0%)
V**(-1/2)                 :    0.107 sec (  0.0%)
Gamma(ia|P)               :    8.284 sec (  1.0%)
Gamma-Trafo               :    1.334 sec (  0.2%)
D(virtual)                :    3.142 sec (  0.4%)
D(internal)               :    3.159 sec (  0.4%)
W(virtual)                :    0.000 sec (  0.0%)
W(internal)               :    0.000 sec (  0.0%)
L(virtual)                :   10.396 sec (  1.3%)
L(internal)               :    0.205 sec (  0.0%)
G(D)                      :   87.763 sec ( 10.6%)
G(Z)                      :    0.000 sec (  0.0%)
Z-Vector Solution         :  691.281 sec ( 83.8%)
3-Index Derivative        :    0.000 sec (  0.0%)
2-Index Derivative        :    0.000 sec (  0.0%)
Separable Gradient (RIJ)  :    0.000 sec (  0.0%)
Separable Gradient (X)    :    0.000 sec (  0.0%)


---------------------------------------
MP2 TOTAL ENERGY:     -454.444436469 Eh
---------------------------------------

-------------------------   --------------------
FINAL SINGLE POINT ENERGY      -454.444436469198
-------------------------   --------------------


                            ***************************************
                            *     ORCA property calculations      *
                            ***************************************

                                    ---------------------
                                    Active property flags
                                    ---------------------
   (+) Dipole Moment


------------------------------------------------------------------------------
                       ORCA ELECTRIC PROPERTIES CALCULATION
------------------------------------------------------------------------------

Dipole Moment Calculation                       ... on
Quadrupole Moment Calculation                   ... off
Polarizability Calculation                      ... off
GBWName                                         ... dsgdb9nsd_050652.gbw
Electron density file                           ... dsgdb9nsd_050652.scfp.tmp

-------------
DIPOLE MOMENT
-------------
                                X             Y             Z
Electronic contribution:      0.26020      -4.50014      -1.91021
Nuclear contribution   :     -1.40826       6.40017       1.64410
                        -----------------------------------------
Total Dipole Moment    :     -1.14806       1.90003      -0.26610
                        -----------------------------------------
Magnitude (a.u.)       :      2.23584
Magnitude (Debye)      :      5.68304


                         *** MP2 UNRELAXED DENSITY ***

------------------------------------------------------------------------------
                       ORCA ELECTRIC PROPERTIES CALCULATION
------------------------------------------------------------------------------

Dipole Moment Calculation                       ... on
Quadrupole Moment Calculation                   ... off
Polarizability Calculation                      ... off
GBWName                                         ... dsgdb9nsd_050652.gbw
Electron density file                           ... dsgdb9nsd_050652.pmp2ur

-------------
DIPOLE MOMENT
-------------
                                X             Y             Z
Electronic contribution:      0.28868      -4.58164      -1.91537
Nuclear contribution   :     -1.40826       6.40017       1.64410
                        -----------------------------------------
Total Dipole Moment    :     -1.11958       1.81854      -0.27127
                        -----------------------------------------
Magnitude (a.u.)       :      2.15270
Magnitude (Debye)      :      5.47172


                           *** MP2 RELAXED DENSITY ***

------------------------------------------------------------------------------
                       ORCA ELECTRIC PROPERTIES CALCULATION
------------------------------------------------------------------------------

Dipole Moment Calculation                       ... on
Quadrupole Moment Calculation                   ... off
Polarizability Calculation                      ... off
GBWName                                         ... dsgdb9nsd_050652.gbw
Electron density file                           ... dsgdb9nsd_050652.pmp2re

-------------
DIPOLE MOMENT
-------------
                                X             Y             Z
Electronic contribution:      0.34897      -4.85070      -1.96081
Nuclear contribution   :     -1.40826       6.40017       1.64410
                        -----------------------------------------
Total Dipole Moment    :     -1.05929       1.54947      -0.31671
                        -----------------------------------------
Magnitude (a.u.)       :      1.90349
Magnitude (Debye)      :      4.83829


Timings for individual modules:

Sum of individual times         ...      971.463 sec (=  16.191 min)
GTO integral calculation        ...        0.510 sec (=   0.008 min)   0.1 %
SCF iterations                  ...      146.031 sec (=   2.434 min)  15.0 %
MP2 module                      ...      824.922 sec (=  13.749 min)  84.9 %
                             ****ORCA TERMINATED NORMALLY****
TOTAL RUN TIME: 0 days 0 hours 16 minutes 11 seconds 941 msec
