
                                 *****************
                                 * O   R   C   A *
                                 *****************

           --- An Ab Initio, DFT and Semiempirical electronic structure package ---

                  #######################################################
                  #                        -***-                        #
                  #  Department of molecular theory and spectroscopy    #
                  #              Directorship: Frank Neese              #
                  # Max Planck Institute for Chemical Energy Conversion #
                  #                  D-45470 Muelheim/Ruhr              #
                  #                       Germany                       #
                  #                                                     #
                  #                  All rights reserved                #
                  #                        -***-                        #
                  #######################################################


                         Program Version 3.0.3 - RELEASE   -


 With contributions from (in alphabetic order):
   Ute Becker             : Parallelization
   Dmytro Bykov           : SCF Hessian
   Dmitry Ganyushin       : Spin-Orbit,Spin-Spin,Magnetic field MRCI
   Andreas Hansen         : Spin unrestricted coupled pair/coupled cluster methods
   Dimitrios Liakos       : Extrapolation schemes; parallel MDCI
   Robert Izsak           : Overlap fitted RIJCOSX, COSX-SCS-MP3
   Christian Kollmar      : KDIIS, OOCD, Brueckner-CCSD(T), CCSD density
   Simone Kossmann        : Meta GGA functionals, TD-DFT gradient, OOMP2, MP2 Hessian
   Taras Petrenko         : DFT Hessian,TD-DFT gradient, ASA and ECA modules, normal mode analysis, Resonance Raman, ABS, FL, XAS/XES, NRVS
   Christoph Reimann      : Effective Core Potentials
   Michael Roemelt        : Restricted open shell CIS
   Christoph Riplinger    : Improved optimizer, TS searches, QM/MM, DLPNO-CCSD
   Barbara Sandhoefer     : DKH picture change effects
   Igor Schapiro          : Molecular dynamics
   Kantharuban Sivalingam : CASSCF convergence, NEVPT2
   Boris Wezisla          : Elementary symmetry handling
   Frank Wennmohs         : Technical directorship


 We gratefully acknowledge several colleagues who have allowed us to
 interface, adapt or use parts of their codes:
   Stefan Grimme, W. Hujo, H. Kruse, T. Risthaus : VdW corrections, initial TS optimization,
                                                   DFT functionals, gCP
   Ed Valeev                                     : LibInt (2-el integral package), F12 methods
   Garnet Chan, S. Sharma, R. Olivares           : DMRG
   Ulf Ekstrom                                   : XCFun DFT Library
   Mihaly Kallay                                 : mrcc  (arbitrary order and MRCC methods)
   Andreas Klamt, Michael Diedenhofen            : otool_cosmo (COSMO solvation model)
   Frank Weinhold                                : gennbo (NPA and NBO analysis)
   Christopher J. Cramer and Donald G. Truhlar   : smd solvation model


 Your calculation uses the libint2 library for the computation of 2-el integrals
 For citations please refer to: http://libint.valeyev.net

 This ORCA versions uses:
   CBLAS   interface :  Fast vector & matrix operations
   LAPACKE interface :  Fast linear algebra routines
   SCALAPACK package :  Parallel linear algebra routines


Your calculation utilizes the basis: Ahlrichs-TZV
Cite in your paper:
H - Kr: A. Schaefer, H. Horn and R. Ahlrichs, J. Chem. Phys. 97, 2571 (1992).

The def2-TZV basis will be loaded
Cite in your paper:
 	F. Weigend, R. Ahlrichs, Phys. Chem. Chem. Phys. 2005, 7, 3297.

================================================================================
                                        WARNINGS
                       Please study these warnings very carefully!
================================================================================
Now building the actual basis set


INFO   : the flag for use of LIBINT has been found!

================================================================================
                                       INPUT FILE
================================================================================
NAME = dsgdb9nsd_019330.inp
|  1> ! RI-MP2 RIJK def2-TZVP def2-TZVP/C def2-TZVP/JK TIGHTSCF
|  2> % maxcore 2000
|  3> % mp2 density relaxed end
|  4> *xyz 0 1
|  5>  N        0.1358241362    -1.1157952738     0.0190633117 
|  6>  C        0.0622472430     0.0394405740     0.0145776840 
|  7>  C       -0.0134266973     1.4618901984    -0.0045366526 
|  8>  C        0.2685461099     2.2722572179    -1.2524421414 
|  9>  C        1.0965154304     2.5123990567    -0.0310041943 
| 10>  C        0.3273200324     3.2271746243     1.0920991629 
| 11>  C       -1.0870347477     3.5314090513     0.7913222120 
| 12>  N       -0.7219030138     2.1480069559     1.1580903500 
| 13>  H        0.7711768376     1.6898909971    -2.0176531916 
| 14>  H       -0.4352207913     2.9939437311    -1.6489615495 
| 15>  H        2.1631900520     2.3398705218    -0.0006918711 
| 16>  H        0.8196150346     3.5625502545     1.9980956828 
| 17>  H       -1.6557908587     4.0066321814     1.5852156268 
| 18>  H       -1.4358239073     3.7780179995    -0.2039736598 
| 19> *
| 20> 
| 21>                          ****END OF INPUT****
================================================================================

                       ****************************
                       * Single Point Calculation *
                       ****************************

---------------------------------
CARTESIAN COORDINATES (ANGSTROEM)
---------------------------------
  N      0.135824   -1.115795    0.019063
  C      0.062247    0.039441    0.014578
  C     -0.013427    1.461890   -0.004537
  C      0.268546    2.272257   -1.252442
  C      1.096515    2.512399   -0.031004
  C      0.327320    3.227175    1.092099
  C     -1.087035    3.531409    0.791322
  N     -0.721903    2.148007    1.158090
  H      0.771177    1.689891   -2.017653
  H     -0.435221    2.993944   -1.648962
  H      2.163190    2.339871   -0.000692
  H      0.819615    3.562550    1.998096
  H     -1.655791    4.006632    1.585216
  H     -1.435824    3.778018   -0.203974

----------------------------
CARTESIAN COORDINATES (A.U.)
----------------------------
  NO LB      ZA    FRAG    MASS        X           Y           Z
   0 N     7.0000    0    14.007          0.256670419794420         -2.108547489005679          0.036024438318577
   1 C     6.0000    0    12.011          0.117630241861647          0.074531883424655          0.027547830426846
   2 C     6.0000    0    12.011         -0.025372780780060          2.762572112839803         -0.008573030978742
   3 C     6.0000    0    12.011          0.507478602040919          4.293943847656826         -2.366772645827876
   4 C     6.0000    0    12.011          2.072113865074789          4.747746156285091         -0.058589436229882
   5 C     6.0000    0    12.011          0.618545219382231          6.098476226267207          2.063768328965653
   6 C     6.0000    0    12.011         -2.054197971209184          6.673395973807664          1.495382264368773
   7 N     7.0000    0    14.007         -1.364198991334374          4.059144880408864          2.188473599837009
   8 H     1.0000    0     1.008          1.457313023887465          3.193431180698112         -3.812811965356143
   9 H     1.0000    0     1.008         -0.822448103345497          5.657733712149370         -3.116085733921432
  10 H     1.0000    0     1.008          4.087836773902872          4.421714475037416         -0.001307446898975
  11 H     1.0000    0     1.008          1.548847950638391          6.732244319336457          3.775853629862388
  12 H     1.0000    0     1.008         -3.128991257993301          7.571437542201492          2.995623397864318
  13 H     1.0000    0     1.008         -2.713313961333735          7.139419348080036         -0.385454355555623

--------------------------------
INTERNAL COORDINATES (ANGSTROEM)
--------------------------------
 N      0   0   0   0.000000     0.000     0.000
 C      1   0   0   1.157585     0.000     0.000
 C      2   1   0   1.424589   179.189     0.000
 C      3   2   1   1.514421   122.375    32.909
 C      4   3   2   1.495029    61.043   239.122
 C      5   4   3   1.537507   113.229   288.517
 C      6   5   4   1.477642   115.207     1.036
 N      7   6   5   1.477038    61.314    77.390
 H      4   3   2   1.085051   112.344   345.027
 H      4   3   2   1.083211   122.492   125.833
 H      5   4   3   1.080962   122.941   117.449
 H      6   5   4   1.084279   121.804   186.503
 H      7   6   5   1.086088   116.266   178.037
 H      7   6   5   1.083090   122.832   326.670

---------------------------
INTERNAL COORDINATES (A.U.)
---------------------------
 N      0   0   0   0.000000     0.000     0.000
 C      1   0   0   2.187519     0.000     0.000
 C      2   1   0   2.692084   179.189     0.000
 C      3   2   1   2.861841   122.375    32.909
 C      4   3   2   2.825196    61.043   239.122
 C      5   4   3   2.905467   113.229   288.517
 C      6   5   4   2.792338   115.207     1.036
 N      7   6   5   2.791197    61.314    77.390
 H      4   3   2   2.050450   112.344   345.027
 H      4   3   2   2.046973   122.492   125.833
 H      5   4   3   2.042723   122.941   117.449
 H      6   5   4   2.048990   121.804   186.503
 H      7   6   5   2.052409   116.266   178.037
 H      7   6   5   2.046743   122.832   326.670

---------------------
BASIS SET INFORMATION
---------------------
There are 3 groups of distinct atoms

 Group   1 Type N   : 11s6p2d1f contracted to 5s3p2d1f pattern {62111/411/11/1}
 Group   2 Type C   : 11s6p2d1f contracted to 5s3p2d1f pattern {62111/411/11/1}
 Group   3 Type H   : 5s1p contracted to 3s1p pattern {311/1}

Atom   0N    basis set group =>   1
Atom   1C    basis set group =>   2
Atom   2C    basis set group =>   2
Atom   3C    basis set group =>   2
Atom   4C    basis set group =>   2
Atom   5C    basis set group =>   2
Atom   6C    basis set group =>   2
Atom   7N    basis set group =>   1
Atom   8H    basis set group =>   3
Atom   9H    basis set group =>   3
Atom  10H    basis set group =>   3
Atom  11H    basis set group =>   3
Atom  12H    basis set group =>   3
Atom  13H    basis set group =>   3
-------------------------------
AUXILIARY BASIS SET INFORMATION
-------------------------------
There are 3 groups of distinct atoms

 Group   1 Type N   : 14s10p6d2f1g contracted to 10s8p4d2f1g pattern {5111111111/31111111/3111/11/1}
 Group   2 Type C   : 14s10p6d2f1g contracted to 10s8p5d1f1g pattern {5111111111/31111111/21111/2/1}
 Group   3 Type H   : 4s2p2d contracted to 2s2p2d pattern {31/11/11}

Atom   0N    basis set group =>   1
Atom   1C    basis set group =>   2
Atom   2C    basis set group =>   2
Atom   3C    basis set group =>   2
Atom   4C    basis set group =>   2
Atom   5C    basis set group =>   2
Atom   6C    basis set group =>   2
Atom   7N    basis set group =>   1
Atom   8H    basis set group =>   3
Atom   9H    basis set group =>   3
Atom  10H    basis set group =>   3
Atom  11H    basis set group =>   3
Atom  12H    basis set group =>   3
Atom  13H    basis set group =>   3
------------------------------------------------------------------------------
                           ORCA GTO INTEGRAL CALCULATION
                           -- RI-GTO INTEGRALS CHOSEN --
------------------------------------------------------------------------------

                         BASIS SET STATISTICS AND STARTUP INFO

Gaussian basis set:
 # of primitive gaussian shells          ...  196
 # of primitive gaussian functions       ...  416
 # of contracted shells                  ...  112
 # of contracted basis functions         ...  284
 Highest angular momentum                ...    3
 Maximum contraction depth               ...    6
Auxiliary gaussian basis set:
 # of primitive gaussian shells          ...  312
 # of primitive gaussian functions       ...  896
 # of contracted shells                  ...  236
 # of contracted aux-basis functions     ...  712
 Highest angular momentum                ...    4
 Maximum contraction depth               ...    5
Ratio of auxiliary to basis functions    ...  2.51
Integral package used                  ... LIBINT
 One Electron integrals                  ... done
 Ordering auxiliary basis shells         ... done
 Integral threshhold             Thresh  ...  2.500e-11
 Primitive cut-off               TCut    ...  2.500e-12
 Pre-screening matrix                    ... done
 Shell pair data                         ... 
 Ordering of the shell pairs             ... done (   0.001 sec) 5972 of 6328 pairs
 Determination of significant pairs      ... done (   0.000 sec)
 Creation of shell pair data             ... done (   0.001 sec)
 Storage of shell pair data              ... done (   0.001 sec)
 Shell pair data done in (   0.004 sec)
 Computing two index integrals           ... done
 Cholesky decomposition of the V-matrix  ... done


Timings:
 Total evaluation time                   ...   0.296 sec (  0.005 min)
 One electron matrix time                ...   0.057 sec (  0.001 min) = 19.4%
 Schwartz matrix evaluation time         ...   0.172 sec (  0.003 min) = 58.2%
 Two index repulsion integral time       ...   0.016 sec (  0.000 min) =  5.2%
 Cholesky decomposition of V             ...   0.019 sec (  0.000 min) =  6.5%
 Three index repulsion integral time     ...   0.000 sec (  0.000 min) =  0.0%

-------------------------------------------------------------------------------
                                 ORCA SCF
-------------------------------------------------------------------------------

------------
SCF SETTINGS
------------
Hamiltonian:
 Ab initio Hamiltonian  Method          .... Hartree-Fock(GTOs)
 RI-approximation to the Coulomb term is turned on
   Number of auxiliary basis functions  .... 712
   RI-JK (J+K treated both via RI)      .... on


General Settings:
 Integral files         IntName         .... dsgdb9nsd_019330
 Hartree-Fock type      HFTyp           .... RHF
 Total Charge           Charge          ....    0
 Multiplicity           Mult            ....    1
 Number of Electrons    NEL             ....   56
 Basis Dimension        Dim             ....  284
 Nuclear Repulsion      ENuc            ....    336.5175068019 Eh

Convergence Acceleration:
 DIIS                   CNVDIIS         .... on
   Start iteration      DIISMaxIt       ....    12
   Startup error        DIISStart       ....  0.200000
   # of expansion vecs  DIISMaxEq       ....     5
   Bias factor          DIISBfac        ....   1.050
   Max. coefficient     DIISMaxC        ....  10.000
 Newton-Raphson         CNVNR           .... off
 SOSCF                  CNVSOSCF        .... on
   Start iteration      SOSCFMaxIt      ....   150
   Startup grad/error   SOSCFStart      ....  0.003300
 Level Shifting         CNVShift        .... on
   Level shift para.    LevelShift      ....    0.2500
   Turn off err/grad.   ShiftErr        ....    0.0010
 Zerner damping         CNVZerner       .... off
 Static damping         CNVDamp         .... on
   Fraction old density DampFac         ....    0.7000
   Max. Damping (<1)    DampMax         ....    0.9800
   Min. Damping (>=0)   DampMin         ....    0.0000
   Turn off err/grad.   DampErr         ....    0.1000
 Fernandez-Rico         CNVRico         .... off

SCF Procedure:
 Maximum # iterations   MaxIter         ....   125
 SCF integral mode      SCFMode         .... Direct
   Integral package                     .... LIBINT
 Reset frequeny         DirectResetFreq ....    20
 Integral Threshold     Thresh          ....  2.500e-11 Eh
 Primitive CutOff       TCut            ....  2.500e-12 Eh

Convergence Tolerance:
 Convergence Check Mode ConvCheckMode   .... Total+1el-Energy
 Energy Change          TolE            ....  1.000e-08 Eh
 1-El. energy change                    ....  1.000e-05 Eh
 Orbital Gradient       TolG            ....  1.000e-05
 Orbital Rotation angle TolX            ....  1.000e-05
 DIIS Error             TolErr          ....  5.000e-07


Diagonalization of the overlap matrix:
Smallest eigenvalue                        ... 5.054e-05
Time for diagonalization                   ...    0.021 sec
Threshold for overlap eigenvalues          ... 1.000e-08
Number of eigenvalues below threshold      ... 0
Time for construction of square roots      ...    0.010 sec
Total time needed                          ...    0.031 sec

-------------------
DFT GRID GENERATION
-------------------

General Integration Accuracy     IntAcc      ...  4.340
Radial Grid Type                 RadialGrid  ... Gauss-Chebyshev
Angular Grid (max. acc.)         AngularGrid ... Lebedev-110
Angular grid pruning method      GridPruning ... 3 (G Style)
Weight generation scheme         WeightScheme... Becke
Basis function cutoff            BFCut       ...    1.0000e-11
Integration weight cutoff        WCut        ...    1.0000e-14
Grids for H and He will be reduced by one unit

# of grid points (after initial pruning)     ...  18104 (   0.0 sec)
# of grid points (after weights+screening)   ...  16800 (   0.1 sec)
nearest neighbour list constructed           ...    0.0 sec
Grid point re-assignment to atoms done       ...    0.0 sec
Grid point division into batches done        ...    0.0 sec
Reduced shell lists constructed in    0.9 sec

Total number of grid points                  ...    16800
Total number of batches                      ...      271
Average number of points per batch           ...       61
Average number of grid points per atom       ...     1200
Average number of shells per batch           ...    80.61 (71.97%)
Average number of basis functions per batch  ...   212.73 (74.90%)
Average number of large shells per batch     ...    65.39 (81.11%)
Average number of large basis fcns per batch ...   170.36 (80.08%)
Average number of aux-shells per batch       ...    80.61 (34.16%)
Average number of aux functions per batch    ...   212.73 (  inf%)
Maximum spatial batch extension              ...  29.73, 20.59, 25.60 au
Average spatial batch extension              ...   4.24,  3.74,  4.09 au

Time for grid setup =    0.944 sec

------------------------------
INITIAL GUESS: MODEL POTENTIAL
------------------------------
Loading Hartree-Fock densities                     ... done
Calculating cut-offs                               ... done
Setting up the integral package                    ... done
Initializing the effective Hamiltonian             ... done
Starting the Coulomb interaction                   ... done (   0.4 sec)
Reading the grid                                   ... done
Mapping shells                                     ... done
Starting the XC term evaluation                    ... done (   0.5 sec)
Transforming the Hamiltonian                       ... done (   0.0 sec)
Diagonalizing the Hamiltonian                      ... done (   0.0 sec)
Back transforming the eigenvectors                 ... done (   0.0 sec)
Now organizing SCF variables                       ... done
                      ------------------
                      INITIAL GUESS DONE (   2.0 sec)
                      ------------------
--------------
SCF ITERATIONS
--------------
ITER       Energy         Delta-E        Max-DP      RMS-DP      [F,P]     Damp
  0   -339.2584513729   0.000000000000 0.04998542  0.00110977  0.2772869 0.7000
  1   -339.1787544899   0.079696883020 0.06373774  0.00115557  0.2759524 0.7000
                               ***Turning on DIIS***
  2   -339.2095075786  -0.030753088655 0.04312965  0.00082909  0.1690754 0.7000
  3   -339.8767640235  -0.667256444920 0.01921702  0.00045073  0.1180563 0.7000
  4   -339.4749554780   0.401808545448 0.05457087  0.00109910  0.0770835 0.0000
  5   -339.5016349147  -0.026679436692 0.01703337  0.00035407  0.0444968 0.0000
  6   -339.4980181111   0.003616803658 0.00833187  0.00014456  0.0099532 0.0000
  7   -339.5118686514  -0.013850540292 0.00265978  0.00006091  0.0066474 0.0000
  8   -339.5227081174  -0.010839466005 0.00175819  0.00004718  0.0059488 0.0000
                      *** Initiating the SOSCF procedure ***
                           *** Shutting down DIIS ***
                      *** Re-Reading the Fockian *** 
                      *** Removing any level shift *** 
ITER      Energy       Delta-E        Grad      Rot      Max-DP    RMS-DP
  9   -339.55637879  -0.0336706715  0.000183  0.000183  0.001196  0.000019
 10   -339.55731464  -0.0009358473  0.000056  0.000075  0.000444  0.000007
 11   -339.55731494  -0.0000003046  0.000033  0.000048  0.000225  0.000003
 12   -339.55731507  -0.0000001284  0.000008  0.000023  0.000099  0.000001
 13   -339.55731508  -0.0000000084  0.000004  0.000011  0.000016  0.000000
                  ***Gradient check signals convergence***
              ***Rediagonalizing the Fockian in SOSCF/NRSCF***

               *****************************************************
               *                     SUCCESS                       *
               *           SCF CONVERGED AFTER  14 CYCLES          *
               *****************************************************


----------------
TOTAL SCF ENERGY
----------------

Total Energy       :         -339.55731508 Eh           -9239.82429 eV

Components:
Nuclear Repulsion  :          336.51750680 Eh            9157.10690 eV
Electronic Energy  :         -676.07482188 Eh          -18396.93119 eV

One Electron Energy:        -1125.66990306 Eh          -30631.03531 eV
Two Electron Energy:          449.59508118 Eh           12234.10413 eV

Virial components:
Potential Energy   :         -678.55150206 Eh          -18464.32508 eV
Kinetic Energy     :          338.99418698 Eh            9224.50079 eV
Virial Ratio       :            2.00166117


---------------
SCF CONVERGENCE
---------------

  Last Energy change         ...   -7.3032e-10  Tolerance :   1.0000e-08
  Last MAX-Density change    ...    1.0292e-05  Tolerance :   1.0000e-07
  Last RMS-Density change    ...    1.6584e-07  Tolerance :   5.0000e-09
  Last Orbital Gradient      ...    1.4319e-06  Tolerance :   1.0000e-05
  Last Orbital Rotation      ...    4.8520e-06  Tolerance :   1.0000e-05

             **** THE GBW FILE WAS UPDATED (dsgdb9nsd_019330.gbw) ****
             **** DENSITY FILE WAS UPDATED (dsgdb9nsd_019330.scfp.tmp) ****
             **** ENERGY FILE WAS UPDATED (dsgdb9nsd_019330.en.tmp) ****
----------------
ORBITAL ENERGIES
----------------

  NO   OCC          E(Eh)            E(eV) 
   0   2.0000     -15.593389      -424.3177 
   1   2.0000     -15.569863      -423.6775 
   2   2.0000     -11.321259      -308.0671 
   3   2.0000     -11.293900      -307.3226 
   4   2.0000     -11.285134      -307.0841 
   5   2.0000     -11.281763      -306.9924 
   6   2.0000     -11.276018      -306.8360 
   7   2.0000     -11.273992      -306.7809 
   8   2.0000      -1.334564       -36.3153 
   9   2.0000      -1.215693       -33.0807 
  10   2.0000      -1.148571       -31.2542 
  11   2.0000      -0.973387       -26.4872 
  12   2.0000      -0.922334       -25.0980 
  13   2.0000      -0.853014       -23.2117 
  14   2.0000      -0.793987       -21.6055 
  15   2.0000      -0.745220       -20.2785 
  16   2.0000      -0.703810       -19.1517 
  17   2.0000      -0.649297       -17.6683 
  18   2.0000      -0.590102       -16.0575 
  19   2.0000      -0.581345       -15.8192 
  20   2.0000      -0.559250       -15.2180 
  21   2.0000      -0.532796       -14.4981 
  22   2.0000      -0.529127       -14.3983 
  23   2.0000      -0.506441       -13.7810 
  24   2.0000      -0.474677       -12.9166 
  25   2.0000      -0.457311       -12.4441 
  26   2.0000      -0.405606       -11.0371 
  27   2.0000      -0.368007       -10.0140 
  28   0.0000       0.130656         3.5553 
  29   0.0000       0.137802         3.7498 
  30   0.0000       0.141876         3.8606 
  31   0.0000       0.164389         4.4732 
  32   0.0000       0.172025         4.6810 
  33   0.0000       0.181322         4.9340 
  34   0.0000       0.191916         5.2223 
  35   0.0000       0.205142         5.5822 
  36   0.0000       0.223214         6.0740 
  37   0.0000       0.225882         6.1466 
  38   0.0000       0.240549         6.5457 
  39   0.0000       0.255317         6.9475 
  40   0.0000       0.271987         7.4011 
  41   0.0000       0.280092         7.6217 
  42   0.0000       0.302958         8.2439 
  43   0.0000       0.310646         8.4531 
  44   0.0000       0.322212         8.7678 
  45   0.0000       0.349087         9.4991 
  46   0.0000       0.368892        10.0381 
  47   0.0000       0.384549        10.4641 
  48   0.0000       0.397853        10.8261 
  49   0.0000       0.405875        11.0444 
  50   0.0000       0.422544        11.4980 
  51   0.0000       0.424952        11.5635 
  52   0.0000       0.444218        12.0878 
  53   0.0000       0.459454        12.5024 
  54   0.0000       0.483071        13.1450 
  55   0.0000       0.497735        13.5441 
  56   0.0000       0.511724        13.9247 
  57   0.0000       0.520769        14.1708 
  58   0.0000       0.531917        14.4742 
  59   0.0000       0.534967        14.5572 
  60   0.0000       0.542029        14.7493 
  61   0.0000       0.550509        14.9801 
  62   0.0000       0.557703        15.1759 
  63   0.0000       0.587616        15.9898 
  64   0.0000       0.592847        16.1322 
  65   0.0000       0.601624        16.3710 
  66   0.0000       0.613830        16.7032 
  67   0.0000       0.626554        17.0494 
  68   0.0000       0.646250        17.5853 
  69   0.0000       0.649696        17.6791 
  70   0.0000       0.662200        18.0194 
  71   0.0000       0.672508        18.2999 
  72   0.0000       0.692371        18.8404 
  73   0.0000       0.701816        19.0974 
  74   0.0000       0.730324        19.8731 
  75   0.0000       0.744257        20.2523 
  76   0.0000       0.762085        20.7374 
  77   0.0000       0.784168        21.3383 
  78   0.0000       0.798735        21.7347 
  79   0.0000       0.822317        22.3764 
  80   0.0000       0.843805        22.9611 
  81   0.0000       0.859208        23.3803 
  82   0.0000       0.874495        23.7962 
  83   0.0000       0.900976        24.5168 
  84   0.0000       0.952372        25.9154 
  85   0.0000       0.970446        26.4072 
  86   0.0000       0.980049        26.6685 
  87   0.0000       1.034212        28.1423 
  88   0.0000       1.069948        29.1148 
  89   0.0000       1.095222        29.8025 
  90   0.0000       1.109292        30.1854 
  91   0.0000       1.133404        30.8415 
  92   0.0000       1.165513        31.7152 
  93   0.0000       1.180057        32.1110 
  94   0.0000       1.199543        32.6412 
  95   0.0000       1.230589        33.4860 
  96   0.0000       1.240842        33.7650 
  97   0.0000       1.277761        34.7696 
  98   0.0000       1.286873        35.0176 
  99   0.0000       1.298371        35.3305 
 100   0.0000       1.316040        35.8113 
 101   0.0000       1.344032        36.5730 
 102   0.0000       1.345584        36.6152 
 103   0.0000       1.362762        37.0826 
 104   0.0000       1.375045        37.4169 
 105   0.0000       1.388458        37.7819 
 106   0.0000       1.393769        37.9264 
 107   0.0000       1.457322        39.6557 
 108   0.0000       1.464080        39.8396 
 109   0.0000       1.490024        40.5456 
 110   0.0000       1.518568        41.3223 
 111   0.0000       1.532279        41.6954 
 112   0.0000       1.537742        41.8441 
 113   0.0000       1.578314        42.9481 
 114   0.0000       1.601976        43.5920 
 115   0.0000       1.637433        44.5568 
 116   0.0000       1.650465        44.9114 
 117   0.0000       1.677298        45.6416 
 118   0.0000       1.725049        46.9410 
 119   0.0000       1.737275        47.2737 
 120   0.0000       1.755357        47.7657 
 121   0.0000       1.770668        48.1823 
 122   0.0000       1.788107        48.6569 
 123   0.0000       1.807705        49.1902 
 124   0.0000       1.849173        50.3186 
 125   0.0000       1.883854        51.2623 
 126   0.0000       1.889277        51.4098 
 127   0.0000       1.919336        52.2278 
 128   0.0000       1.931625        52.5622 
 129   0.0000       1.945118        52.9294 
 130   0.0000       1.964866        53.4667 
 131   0.0000       1.993687        54.2510 
 132   0.0000       2.016810        54.8802 
 133   0.0000       2.033032        55.3216 
 134   0.0000       2.073439        56.4211 
 135   0.0000       2.106932        57.3325 
 136   0.0000       2.121347        57.7248 
 137   0.0000       2.140720        58.2519 
 138   0.0000       2.169619        59.0383 
 139   0.0000       2.203137        59.9504 
 140   0.0000       2.235908        60.8421 
 141   0.0000       2.255109        61.3646 
 142   0.0000       2.315858        63.0177 
 143   0.0000       2.360647        64.2365 
 144   0.0000       2.361602        64.2625 
 145   0.0000       2.387717        64.9731 
 146   0.0000       2.418182        65.8021 
 147   0.0000       2.460477        66.9530 
 148   0.0000       2.498135        67.9777 
 149   0.0000       2.539050        69.0911 
 150   0.0000       2.544456        69.2382 
 151   0.0000       2.563452        69.7551 
 152   0.0000       2.595992        70.6405 
 153   0.0000       2.608868        70.9909 
 154   0.0000       2.642441        71.9045 
 155   0.0000       2.659942        72.3807 
 156   0.0000       2.681847        72.9768 
 157   0.0000       2.726274        74.1857 
 158   0.0000       2.752492        74.8991 
 159   0.0000       2.758858        75.0723 
 160   0.0000       2.783143        75.7332 
 161   0.0000       2.801464        76.2317 
 162   0.0000       2.819722        76.7285 
 163   0.0000       2.843065        77.3637 
 164   0.0000       2.855846        77.7115 
 165   0.0000       2.865035        77.9616 
 166   0.0000       2.879324        78.3504 
 167   0.0000       2.896052        78.8056 
 168   0.0000       2.908769        79.1516 
 169   0.0000       2.927149        79.6518 
 170   0.0000       2.942973        80.0824 
 171   0.0000       2.958344        80.5006 
 172   0.0000       2.991867        81.4128 
 173   0.0000       3.019376        82.1614 
 174   0.0000       3.030620        82.4674 
 175   0.0000       3.045326        82.8675 
 176   0.0000       3.066096        83.4327 
 177   0.0000       3.081890        83.8625 
 178   0.0000       3.114738        84.7563 
 179   0.0000       3.130059        85.1732 
 180   0.0000       3.162294        86.0504 
 181   0.0000       3.193181        86.8909 
 182   0.0000       3.233735        87.9944 
 183   0.0000       3.251242        88.4708 
 184   0.0000       3.291103        89.5555 
 185   0.0000       3.296914        89.7136 
 186   0.0000       3.308848        90.0383 
 187   0.0000       3.335724        90.7697 
 188   0.0000       3.366039        91.5946 
 189   0.0000       3.379562        91.9626 
 190   0.0000       3.384184        92.0883 
 191   0.0000       3.401349        92.5554 
 192   0.0000       3.406695        92.7009 
 193   0.0000       3.425786        93.2204 
 194   0.0000       3.465882        94.3114 
 195   0.0000       3.470195        94.4288 
 196   0.0000       3.490899        94.9922 
 197   0.0000       3.509420        95.4962 
 198   0.0000       3.539649        96.3188 
 199   0.0000       3.548217        96.5519 
 200   0.0000       3.569378        97.1277 
 201   0.0000       3.581043        97.4451 
 202   0.0000       3.611429        98.2720 
 203   0.0000       3.624846        98.6371 
 204   0.0000       3.660825        99.6161 
 205   0.0000       3.671223        99.8990 
 206   0.0000       3.715300       101.0985 
 207   0.0000       3.737483       101.7021 
 208   0.0000       3.750938       102.0682 
 209   0.0000       3.779386       102.8423 
 210   0.0000       3.808276       103.6285 
 211   0.0000       3.863089       105.1200 
 212   0.0000       3.909713       106.3887 
 213   0.0000       3.916072       106.5617 
 214   0.0000       3.921471       106.7086 
 215   0.0000       3.967938       107.9731 
 216   0.0000       3.977214       108.2255 
 217   0.0000       4.022734       109.4641 
 218   0.0000       4.066636       110.6588 
 219   0.0000       4.089288       111.2752 
 220   0.0000       4.113921       111.9455 
 221   0.0000       4.176852       113.6579 
 222   0.0000       4.202440       114.3542 
 223   0.0000       4.214597       114.6850 
 224   0.0000       4.255968       115.8108 
 225   0.0000       4.256597       115.8279 
 226   0.0000       4.296740       116.9202 
 227   0.0000       4.349211       118.3481 
 228   0.0000       4.351792       118.4183 
 229   0.0000       4.368237       118.8658 
 230   0.0000       4.369740       118.9067 
 231   0.0000       4.381071       119.2150 
 232   0.0000       4.407725       119.9403 
 233   0.0000       4.445874       120.9784 
 234   0.0000       4.504736       122.5801 
 235   0.0000       4.532195       123.3273 
 236   0.0000       4.574654       124.4827 
 237   0.0000       4.605446       125.3206 
 238   0.0000       4.668775       127.0438 
 239   0.0000       4.698562       127.8544 
 240   0.0000       4.734679       128.8372 
 241   0.0000       4.784653       130.1970 
 242   0.0000       4.838898       131.6731 
 243   0.0000       4.888955       133.0352 
 244   0.0000       4.916738       133.7913 
 245   0.0000       4.959939       134.9668 
 246   0.0000       4.975813       135.3988 
 247   0.0000       5.015184       136.4701 
 248   0.0000       5.037375       137.0740 
 249   0.0000       5.065012       137.8260 
 250   0.0000       5.097390       138.7070 
 251   0.0000       5.107721       138.9882 
 252   0.0000       5.129062       139.5689 
 253   0.0000       5.166141       140.5778 
 254   0.0000       5.200147       141.5032 
 255   0.0000       5.238951       142.5591 
 256   0.0000       5.303371       144.3121 
 257   0.0000       5.325278       144.9082 
 258   0.0000       5.361427       145.8919 
 259   0.0000       5.429018       147.7311 
 260   0.0000       5.526963       150.3963 
 261   0.0000       5.547576       150.9572 
 262   0.0000       5.607351       152.5838 
 263   0.0000       5.665113       154.1556 
 264   0.0000       5.670311       154.2970 
 265   0.0000       5.716742       155.5604 
 266   0.0000       5.742156       156.2520 
 267   0.0000       5.805510       157.9760 
 268   0.0000       5.878698       159.9675 
 269   0.0000       5.971565       162.4945 
 270   0.0000       6.136128       166.9725 
 271   0.0000       6.154828       167.4814 
 272   0.0000       6.206949       168.8997 
 273   0.0000       6.286560       171.0660 
 274   0.0000       6.322547       172.0453 
 275   0.0000       6.614012       179.9764 
 276   0.0000      23.431570       637.6054 
 277   0.0000      23.473581       638.7486 
 278   0.0000      23.535495       640.4334 
 279   0.0000      23.646784       643.4617 
 280   0.0000      23.945208       651.5822 
 281   0.0000      24.668197       671.2558 
 282   0.0000      33.432318       909.7396 
 283   0.0000      33.733376       917.9318 

                    ********************************
                    * MULLIKEN POPULATION ANALYSIS *
                    ********************************

-----------------------
MULLIKEN ATOMIC CHARGES
-----------------------
   0 N :   -0.170282
   1 C :   -0.242826
   2 C :    0.353274
   3 C :   -0.199582
   4 C :   -0.127548
   5 C :   -0.017522
   6 C :   -0.082251
   7 N :   -0.322532
   8 H :    0.147641
   9 H :    0.128220
  10 H :    0.156034
  11 H :    0.135345
  12 H :    0.127981
  13 H :    0.114049
Sum of atomic charges:    0.0000000

--------------------------------
MULLIKEN REDUCED ORBITAL CHARGES
--------------------------------
  0 N s       :     3.702683  s :     3.702683
      pz      :     1.059974  p :     3.409825
      px      :     1.058198
      py      :     1.291653
      dz2     :     0.002837  d :     0.054808
      dxz     :     0.000076
      dyz     :     0.021725
      dx2y2   :     0.008750
      dxy     :     0.021421
      f0      :     0.000446  f :     0.002966
      f+1     :     0.000075
      f-1     :     0.000228
      f+2     :     0.000726
      f-2     :     0.000012
      f+3     :     0.001073
      f-3     :     0.000406
  1 C s       :     3.260342  s :     3.260342
      pz      :     0.912869  p :     2.846049
      px      :     0.911000
      py      :     1.022180
      dz2     :     0.007762  d :     0.118410
      dxz     :     0.000548
      dyz     :     0.043907
      dx2y2   :     0.022633
      dxy     :     0.043561
      f0      :     0.002582  f :     0.018024
      f+1     :     0.000439
      f-1     :     0.001613
      f+2     :     0.004239
      f-2     :     0.000103
      f+3     :     0.006325
      f-3     :     0.002723
  2 C s       :     3.010039  s :     3.010039
      pz      :     0.872742  p :     2.469706
      px      :     0.937896
      py      :     0.659069
      dz2     :     0.041770  d :     0.153341
      dxz     :     0.023698
      dyz     :     0.035645
      dx2y2   :     0.024352
      dxy     :     0.027876
      f0      :     0.002028  f :     0.013639
      f+1     :     0.001570
      f-1     :     0.002146
      f+2     :     0.001651
      f-2     :     0.002305
      f+3     :     0.001712
      f-3     :     0.002227
  3 C s       :     3.215911  s :     3.215911
      pz      :     0.843877  p :     2.888220
      px      :     1.017415
      py      :     1.026929
      dz2     :     0.011221  d :     0.087137
      dxz     :     0.022616
      dyz     :     0.024916
      dx2y2   :     0.006169
      dxy     :     0.022214
      f0      :     0.001337  f :     0.008314
      f+1     :     0.001620
      f-1     :     0.001633
      f+2     :     0.000731
      f-2     :     0.002238
      f+3     :     0.000445
      f-3     :     0.000309
  4 C s       :     3.176953  s :     3.176953
      pz      :     0.956412  p :     2.827255
      px      :     0.938302
      py      :     0.932541
      dz2     :     0.026106  d :     0.112637
      dxz     :     0.027068
      dyz     :     0.018350
      dx2y2   :     0.022822
      dxy     :     0.018292
      f0      :     0.001500  f :     0.010703
      f+1     :     0.001807
      f-1     :     0.001106
      f+2     :     0.001220
      f-2     :     0.001925
      f+3     :     0.001849
      f-3     :     0.001295
  5 C s       :     3.163474  s :     3.163474
      pz      :     0.981752  p :     2.712420
      px      :     0.837337
      py      :     0.893331
      dz2     :     0.018679  d :     0.128784
      dxz     :     0.031805
      dyz     :     0.022431
      dx2y2   :     0.023112
      dxy     :     0.032757
      f0      :     0.001366  f :     0.012845
      f+1     :     0.001910
      f-1     :     0.001491
      f+2     :     0.001260
      f-2     :     0.002102
      f+3     :     0.002217
      f-3     :     0.002498
  6 C s       :     3.192495  s :     3.192495
      pz      :     1.030825  p :     2.775426
      px      :     0.932811
      py      :     0.811790
      dz2     :     0.017155  d :     0.103862
      dxz     :     0.013966
      dyz     :     0.018799
      dx2y2   :     0.029885
      dxy     :     0.024056
      f0      :     0.001101  f :     0.010468
      f+1     :     0.001175
      f-1     :     0.001152
      f+2     :     0.001189
      f-2     :     0.001361
      f+3     :     0.002257
      f-3     :     0.002234
  7 N s       :     3.652856  s :     3.652856
      pz      :     1.320898  p :     3.581426
      px      :     1.219061
      py      :     1.041467
      dz2     :     0.017879  d :     0.083721
      dxz     :     0.012301
      dyz     :     0.016345
      dx2y2   :     0.015360
      dxy     :     0.021835
      f0      :     0.000492  f :     0.004529
      f+1     :     0.000567
      f-1     :     0.000723
      f+2     :     0.000492
      f-2     :     0.000556
      f+3     :     0.000958
      f-3     :     0.000741
  8 H s       :     0.828840  s :     0.828840
      pz      :     0.010070  p :     0.023519
      px      :     0.006372
      py      :     0.007077
  9 H s       :     0.847873  s :     0.847873
      pz      :     0.005598  p :     0.023908
      px      :     0.009013
      py      :     0.009296
 10 H s       :     0.820046  s :     0.820046
      pz      :     0.003835  p :     0.023920
      px      :     0.016019
      py      :     0.004067
 11 H s       :     0.841236  s :     0.841236
      pz      :     0.012648  p :     0.023420
      px      :     0.005689
      py      :     0.005083
 12 H s       :     0.848891  s :     0.848891
      pz      :     0.009895  p :     0.023128
      px      :     0.007522
      py      :     0.005710
 13 H s       :     0.862531  s :     0.862531
      pz      :     0.014077  p :     0.023420
      px      :     0.005342
      py      :     0.004000


                     *******************************
                     * LOEWDIN POPULATION ANALYSIS *
                     *******************************

----------------------
LOEWDIN ATOMIC CHARGES
----------------------
   0 N :    0.037643
   1 C :   -0.135008
   2 C :   -0.202313
   3 C :   -0.134471
   4 C :   -0.114852
   5 C :   -0.165277
   6 C :   -0.202481
   7 N :    0.122273
   8 H :    0.147793
   9 H :    0.125707
  10 H :    0.140171
  11 H :    0.131597
  12 H :    0.130771
  13 H :    0.118447

-------------------------------
LOEWDIN REDUCED ORBITAL CHARGES
-------------------------------
  0 N s       :     3.305596  s :     3.305596
      pz      :     1.018140  p :     3.529101
      px      :     1.017754
      py      :     1.493207
      dz2     :     0.011412  d :     0.112603
      dxz     :     0.000119
      dyz     :     0.033304
      dx2y2   :     0.034188
      dxy     :     0.033581
      f0      :     0.001601  f :     0.015057
      f+1     :     0.000275
      f-1     :     0.002443
      f+2     :     0.002623
      f-2     :     0.000041
      f+3     :     0.003993
      f-3     :     0.004080
  1 C s       :     2.811889  s :     2.811889
      pz      :     0.822662  p :     2.820444
      px      :     0.831995
      py      :     1.165787
      dz2     :     0.039608  d :     0.442675
      dxz     :     0.001416
      dyz     :     0.141461
      dx2y2   :     0.114255
      dxy     :     0.145936
      f0      :     0.006643  f :     0.060000
      f+1     :     0.001166
      f-1     :     0.009318
      f+2     :     0.010901
      f-2     :     0.000226
      f+3     :     0.016582
      f-3     :     0.015164
  2 C s       :     2.668503  s :     2.668503
      pz      :     0.930401  p :     2.797142
      px      :     0.928729
      py      :     0.938012
      dz2     :     0.150624  d :     0.655359
      dxz     :     0.104656
      dyz     :     0.141622
      dx2y2   :     0.140191
      dxy     :     0.118266
      f0      :     0.014504  f :     0.081308
      f+1     :     0.008200
      f-1     :     0.012038
      f+2     :     0.010718
      f-2     :     0.014716
      f+3     :     0.012042
      f-3     :     0.009091
  3 C s       :     2.758995  s :     2.758995
      pz      :     0.950633  p :     2.961573
      px      :     1.014285
      py      :     0.996655
      dz2     :     0.073316  d :     0.371204
      dxz     :     0.093744
      dyz     :     0.102461
      dx2y2   :     0.025297
      dxy     :     0.076386
      f0      :     0.009688  f :     0.042699
      f+1     :     0.007671
      f-1     :     0.008097
      f+2     :     0.004764
      f-2     :     0.008363
      f+3     :     0.002409
      f-3     :     0.001707
  4 C s       :     2.725090  s :     2.725090
      pz      :     0.978098  p :     2.868792
      px      :     0.970267
      py      :     0.920427
      dz2     :     0.119886  d :     0.463053
      dxz     :     0.086789
      dyz     :     0.083220
      dx2y2   :     0.103299
      dxy     :     0.069859
      f0      :     0.010188  f :     0.057916
      f+1     :     0.009631
      f-1     :     0.005208
      f+2     :     0.006001
      f-2     :     0.012780
      f+3     :     0.006364
      f-3     :     0.007745
  5 C s       :     2.742506  s :     2.742506
      pz      :     0.977576  p :     2.816209
      px      :     0.935445
      py      :     0.903189
      dz2     :     0.081083  d :     0.533763
      dxz     :     0.136473
      dyz     :     0.090929
      dx2y2   :     0.097292
      dxy     :     0.127986
      f0      :     0.009400  f :     0.072799
      f+1     :     0.008084
      f-1     :     0.006677
      f+2     :     0.007342
      f-2     :     0.010182
      f+3     :     0.016511
      f-3     :     0.014605
  6 C s       :     2.783475  s :     2.783475
      pz      :     1.032411  p :     2.919635
      px      :     1.012228
      py      :     0.874996
      dz2     :     0.063556  d :     0.441516
      dxz     :     0.087684
      dyz     :     0.095236
      dx2y2   :     0.092503
      dxy     :     0.102537
      f0      :     0.006514  f :     0.057855
      f+1     :     0.004253
      f-1     :     0.005215
      f+2     :     0.008895
      f-2     :     0.006036
      f+3     :     0.012421
      f-3     :     0.014522
  7 N s       :     3.079883  s :     3.079883
      pz      :     1.283617  p :     3.557128
      px      :     1.181744
      py      :     1.091767
      dz2     :     0.037334  d :     0.220739
      dxz     :     0.032687
      dyz     :     0.048749
      dx2y2   :     0.047638
      dxy     :     0.054332
      f0      :     0.002391  f :     0.019977
      f+1     :     0.001832
      f-1     :     0.002752
      f+2     :     0.001888
      f-2     :     0.003011
      f+3     :     0.003748
      f-3     :     0.004354
  8 H s       :     0.790362  s :     0.790362
      pz      :     0.022485  p :     0.061844
      px      :     0.018904
      py      :     0.020456
  9 H s       :     0.811128  s :     0.811128
      pz      :     0.013865  p :     0.063165
      px      :     0.024352
      py      :     0.024948
 10 H s       :     0.796613  s :     0.796613
      pz      :     0.011672  p :     0.063216
      px      :     0.038359
      py      :     0.013185
 11 H s       :     0.807341  s :     0.807341
      pz      :     0.031683  p :     0.061062
      px      :     0.014496
      py      :     0.014884
 12 H s       :     0.808653  s :     0.808653
      pz      :     0.027064  p :     0.060576
      px      :     0.018713
      py      :     0.014799
 13 H s       :     0.818581  s :     0.818581
      pz      :     0.036902  p :     0.062972
      px      :     0.014366
      py      :     0.011704


                      *****************************
                      * MAYER POPULATION ANALYSIS *
                      *****************************

  NA   - Mulliken gross atomic population
  ZA   - Total nuclear charge
  QA   - Mulliken gross atomic charge
  VA   - Mayer's total valence
  BVA  - Mayer's bonded valence
  FA   - Mayer's free valence

  ATOM       NA         ZA         QA         VA         BVA        FA
  0 N      7.1703     7.0000    -0.1703     3.0602     3.0602     0.0000
  1 C      6.2428     6.0000    -0.2428     4.0093     4.0093     0.0000
  2 C      5.6467     6.0000     0.3533     3.6796     3.6796     0.0000
  3 C      6.1996     6.0000    -0.1996     3.9184     3.9184    -0.0000
  4 C      6.1275     6.0000    -0.1275     3.8521     3.8521    -0.0000
  5 C      6.0175     6.0000    -0.0175     3.8977     3.8977     0.0000
  6 C      6.0823     6.0000    -0.0823     3.9508     3.9508    -0.0000
  7 N      7.3225     7.0000    -0.3225     2.8152     2.8152     0.0000
  8 H      0.8524     1.0000     0.1476     0.9794     0.9794     0.0000
  9 H      0.8718     1.0000     0.1282     0.9584     0.9584     0.0000
 10 H      0.8440     1.0000     0.1560     0.9640     0.9640    -0.0000
 11 H      0.8647     1.0000     0.1353     0.9608     0.9608     0.0000
 12 H      0.8720     1.0000     0.1280     0.9794     0.9794    -0.0000
 13 H      0.8860     1.0000     0.1140     0.9558     0.9558    -0.0000

  Mayer bond orders larger than 0.1
B(  0-N ,  1-C ) :   3.0374 B(  1-C ,  2-C ) :   0.9387 B(  2-C ,  3-C ) :   0.9197 
B(  2-C ,  4-C ) :   0.8942 B(  2-C ,  7-N ) :   0.9717 B(  3-C ,  4-C ) :   0.9838 
B(  3-C ,  8-H ) :   0.9704 B(  3-C ,  9-H ) :   0.9544 B(  4-C ,  5-C ) :   0.9847 
B(  4-C , 10-H ) :   0.9441 B(  5-C ,  6-C ) :   1.0517 B(  5-C ,  7-N ) :   0.9081 
B(  5-C , 11-H ) :   0.9484 B(  6-C ,  7-N ) :   0.9410 B(  6-C , 12-H ) :   0.9763 
B(  6-C , 13-H ) :   0.9566 

-------
TIMINGS
-------

Total SCF time: 0 days 0 hours 1 min 20 sec 

Total time                  ....      80.529 sec
Sum of individual times     ....      83.403 sec  (103.6%)

Fock matrix formation       ....      79.581 sec  ( 98.8%)
Diagonalization             ....       0.403 sec  (  0.5%)
Density matrix formation    ....       0.026 sec  (  0.0%)
Population analysis         ....       0.097 sec  (  0.1%)
Initial guess               ....       2.022 sec  (  2.5%)
Orbital Transformation      ....       0.000 sec  (  0.0%)
Orbital Orthonormalization  ....       0.000 sec  (  0.0%)
DIIS solution               ....       0.121 sec  (  0.2%)
SOSCF solution              ....       0.209 sec  (  0.3%)

   <<< Auxbasis replaced with dsgdb9nsd_019330.AUXC.tmp (Dim=698) >>> 


------------------------------------------------------------------------------
                              ORCA MP2 CALCULATION
------------------------------------------------------------------------------

Freezing NCore=16 chemical core electrons

   <<< Use J-auxbasis for calculation of Separable RI-J derivative contributions dsgdb9nsd_019330.AUXJ.tmp (Dim=712) >>> 


---------------------
RI-MP2 ENERGY+DENSITY
---------------------
Dimension of the basis                    ...  284
Memory devoted to MP2                     ... 2000 MB   
Data format for buffers                   ... DOUBLE
Compression type for matrix containers    ... UNCOMPRESSED
Overall scaling of the MP2 energy         ...   1.000e+00 Eh
Calculating two index integrals           ... done (    0.014 sec)
Cholesky decomposition of V**-1           ... done (    0.073 sec)

-----------------
RI-TRANSFORMATION (AUX index driven)
-----------------

Dimension of the orbital-basis         ... 284
Dimension of the aux-basis             ... 698
Transformation of internal MOs         ...    0-  27
Transformation of internal/external MOs...    0-  27 to   28- 283
Number Format for Storage              ... Double (8 Byte)
Integral mode                          ... Direct

First Phase: integral generation and transformation of MO indices
  Aux angular momentum 0               ... done (    0.452 sec)
  Aux angular momentum 1               ... done (    0.615 sec)
  Aux angular momentum 2               ... done (    0.674 sec)
  Aux angular momentum 3               ... done (    0.557 sec)
  Aux angular momentum 4               ... done (    0.255 sec)
Closing buffer VIJ ( 0.00 GB; CompressionRatio= 1.92)
Closing buffer VIA ( 0.04 GB; CompressionRatio= 1.00)
  Phase 1 completed in     2.651 sec
Second Phase: sorting and transformation of aux index

IJ-Transformation
Memory available                       ... 1991 MB 
Max. # MO pairs treated in a batch     ... 28    
# of internal orbitals                 ... 28
# batches for internal orbitals        ... 1
Closing buffer IJV ( 0.00 GB; CompressionRatio= 1.00)
(ij|v) transformation done in     0.092 sec

IA-Transformation
Memory available                       ... 1991 MB 
Max. # MO pairs treated in a batch     ... 28    
# of internal orbitals                 ... 28
# batches for internal orbitals        ... 1
Closing buffer IAV ( 0.04 GB; CompressionRatio= 1.00)
(ia|v) transformation done in     0.720 sec

  Phase 2 completed in     0.957 sec
RI-Integral transformation completed in     3.608 sec
Opening buffers                              ... done
Frozen core precalculation                   ... done

Starting loop over batches of integrals:

Operator 0  - window                       ... (  8- 27)x( 28-283)
Operator 0  - Memory available             ...  2000 MB
Operator 0  - Memory needed per MO         ...   2.7 MB
Operator 0  - Number of orbitals per batch ... 20
Operator 0  - Number of batches            ... 1

OPERATOR  0   PASS   0:  MOs     8 ...   27
  Reading integrals       ... ok
  Internal MO  10
  Internal MO  13
  Internal MO  16
  Internal MO  19
  Internal MO  22
  Internal MO  25
Time spent in pair loops =    16.071 sec
Deleting buffer (Ka|jb)[aa] ...done

-----------------------------------------------
 RI-MP2 CORRELATION ENERGY:     -1.336882581 Eh
-----------------------------------------------


---------------------
MP2 DENSITY FORMATION
---------------------

Completing the external part of the density      ... done
Storing the unrelaxed density                    ... done

Calculating G(D)                                 ... done
Completing the Lagrangian                        ... done
Solving the Z-vector equations                   ... 

------------------------------------------------------------------------------
                           ORCA CP-SCF CALCULATION
------------------------------------------------------------------------------

Input orbitals are from        ... dsgdb9nsd_019330.gbw
Input Perturbation             ... dsgdb9nsd_019330.pin.tmp
Wavefunction output            ... dsgdb9nsd_019330.pout.tmp
Perturbation mode              ... Real perturbation
Solver                         ... POPLE
Max. number of iterations      ... 128
Convergence tolerance          ... 1.000e-08
Integral handling              ... Direct
Number of perturbations        ... 1
Number of operators            ... 1
Orbital ranges used for CP-SCF:
 Operator 0:  Orbitals   0... 27  to  28...283
Variables per vector in CP-SCF ... 7168
Number of vectors sought       ... 1
     CP-SCF ITERATION   0: 
     CP-SCF ITERATION   1:      0.001376118
     CP-SCF ITERATION   2:      0.000341787
     CP-SCF ITERATION   3:      0.000058826
     CP-SCF ITERATION   4:      0.000015506
     CP-SCF ITERATION   5:      0.000003268
     CP-SCF ITERATION   6:      0.000000617
     CP-SCF ITERATION   7:      0.000000099
     CP-SCF ITERATION   8:      0.000000009
done
Finalizing the relaxed density                   ... done
Transforming P to the AO basis                   ... done
Storing the relaxed density                      ... done

                *********************************************
                * UNRELAXED MP2 DENSITY POPULATION ANALYSIS *
                *********************************************

------------------------------------------------------------------------------
                           ORCA POPULATION ANALYSIS
------------------------------------------------------------------------------
Input electron density              ... dsgdb9nsd_019330.pmp2ur
BaseName (.gbw .S,...)              ... dsgdb9nsd_019330

                    ********************************
                    * MULLIKEN POPULATION ANALYSIS *
                    ********************************

-----------------------
MULLIKEN ATOMIC CHARGES
-----------------------
   0 N :   -0.155403
   1 C :   -0.242458
   2 C :    0.335093
   3 C :   -0.209051
   4 C :   -0.131360
   5 C :   -0.027000
   6 C :   -0.094369
   7 N :   -0.306850
   8 H :    0.151356
   9 H :    0.131755
  10 H :    0.160014
  11 H :    0.139338
  12 H :    0.131712
  13 H :    0.117223
Sum of atomic charges:    0.0000000

--------------------------------
MULLIKEN REDUCED ORBITAL CHARGES
--------------------------------
  0 N s       :     3.688888  s :     3.688888
      pz      :     1.053263  p :     3.384278
      px      :     1.051734
      py      :     1.279281
      dz2     :     0.007499  d :     0.076584
      dxz     :     0.004917
      dyz     :     0.025712
      dx2y2   :     0.013039
      dxy     :     0.025417
      f0      :     0.000784  f :     0.005653
      f+1     :     0.000362
      f-1     :     0.000645
      f+2     :     0.001107
      f-2     :     0.000427
      f+3     :     0.001504
      f-3     :     0.000824
  1 C s       :     3.255751  s :     3.255751
      pz      :     0.911555  p :     2.833482
      px      :     0.909816
      py      :     1.012111
      dz2     :     0.011262  d :     0.132224
      dxz     :     0.005117
      dyz     :     0.045845
      dx2y2   :     0.024151
      dxy     :     0.045848
      f0      :     0.002911  f :     0.021002
      f+1     :     0.000711
      f-1     :     0.002126
      f+2     :     0.004619
      f-2     :     0.000659
      f+3     :     0.006751
      f-3     :     0.003225
  2 C s       :     3.013483  s :     3.013483
      pz      :     0.865259  p :     2.455468
      px      :     0.930044
      py      :     0.660165
      dz2     :     0.046022  d :     0.177960
      dxz     :     0.028830
      dyz     :     0.040917
      dx2y2   :     0.029102
      dxy     :     0.033090
      f0      :     0.002747  f :     0.017996
      f+1     :     0.002067
      f-1     :     0.002703
      f+2     :     0.002364
      f-2     :     0.002880
      f+3     :     0.002473
      f-3     :     0.002761
  3 C s       :     3.214576  s :     3.214576
      pz      :     0.840274  p :     2.872555
      px      :     1.011424
      py      :     1.020857
      dz2     :     0.015848  d :     0.109868
      dxz     :     0.026517
      dyz     :     0.028599
      dx2y2   :     0.011930
      dxy     :     0.026973
      f0      :     0.001922  f :     0.012052
      f+1     :     0.002137
      f-1     :     0.002145
      f+2     :     0.001315
      f-2     :     0.002746
      f+3     :     0.000956
      f-3     :     0.000832
  4 C s       :     3.174160  s :     3.174160
      pz      :     0.948395  p :     2.808559
      px      :     0.932462
      py      :     0.927701
      dz2     :     0.030603  d :     0.133999
      dxz     :     0.030553
      dyz     :     0.023193
      dx2y2   :     0.028160
      dxy     :     0.021491
      f0      :     0.002123  f :     0.014643
      f+1     :     0.002368
      f-1     :     0.001607
      f+2     :     0.001814
      f-2     :     0.002459
      f+3     :     0.002373
      f-3     :     0.001898
  5 C s       :     3.160340  s :     3.160340
      pz      :     0.976560  p :     2.700755
      px      :     0.833414
      py      :     0.890781
      dz2     :     0.022673  d :     0.149157
      dxz     :     0.035888
      dyz     :     0.027302
      dx2y2   :     0.027694
      dxy     :     0.035599
      f0      :     0.001997  f :     0.016747
      f+1     :     0.002464
      f-1     :     0.001994
      f+2     :     0.001859
      f-2     :     0.002665
      f+3     :     0.002753
      f-3     :     0.003016
  6 C s       :     3.190831  s :     3.190831
      pz      :     1.024904  p :     2.764342
      px      :     0.928023
      py      :     0.811415
      dz2     :     0.021153  d :     0.125077
      dxz     :     0.019172
      dyz     :     0.023855
      dx2y2   :     0.032361
      dxy     :     0.028535
      f0      :     0.001660  f :     0.014120
      f+1     :     0.001726
      f-1     :     0.001681
      f+2     :     0.001774
      f-2     :     0.001877
      f+3     :     0.002704
      f-3     :     0.002698
  7 N s       :     3.643635  s :     3.643635
      pz      :     1.305814  p :     3.543945
      px      :     1.205471
      py      :     1.032661
      dz2     :     0.023348  d :     0.111396
      dxz     :     0.018016
      dyz     :     0.021941
      dx2y2   :     0.021137
      dxy     :     0.026954
      f0      :     0.000978  f :     0.007874
      f+1     :     0.001018
      f-1     :     0.001208
      f+2     :     0.000964
      f-2     :     0.001043
      f+3     :     0.001436
      f-3     :     0.001227
  8 H s       :     0.822239  s :     0.822239
      pz      :     0.010919  p :     0.026405
      px      :     0.007395
      py      :     0.008091
  9 H s       :     0.841318  s :     0.841318
      pz      :     0.006649  p :     0.026927
      px      :     0.010009
      py      :     0.010269
 10 H s       :     0.813139  s :     0.813139
      pz      :     0.004921  p :     0.026847
      px      :     0.016744
      py      :     0.005182
 11 H s       :     0.834240  s :     0.834240
      pz      :     0.013494  p :     0.026422
      px      :     0.006741
      py      :     0.006186
 12 H s       :     0.842215  s :     0.842215
      pz      :     0.010792  p :     0.026074
      px      :     0.008495
      py      :     0.006786
 13 H s       :     0.856265  s :     0.856265
      pz      :     0.014896  p :     0.026512
      px      :     0.006429
      py      :     0.005187


                     *******************************
                     * LOEWDIN POPULATION ANALYSIS *
                     *******************************

----------------------
LOEWDIN ATOMIC CHARGES
----------------------
   0 N :    0.045490
   1 C :   -0.140042
   2 C :   -0.205306
   3 C :   -0.139556
   4 C :   -0.118166
   5 C :   -0.169867
   6 C :   -0.208243
   7 N :    0.129149
   8 H :    0.149836
   9 H :    0.127710
  10 H :    0.142299
  11 H :    0.133578
  12 H :    0.132834
  13 H :    0.120283

-------------------------------
LOEWDIN REDUCED ORBITAL CHARGES
-------------------------------
  0 N s       :     3.297800  s :     3.297800
      pz      :     1.008951  p :     3.495091
      px      :     1.008753
      py      :     1.477386
      dz2     :     0.016699  d :     0.142126
      dxz     :     0.004897
      dyz     :     0.039872
      dx2y2   :     0.040507
      dxy     :     0.040152
      f0      :     0.002139  f :     0.019494
      f+1     :     0.000597
      f-1     :     0.003115
      f+2     :     0.003330
      f-2     :     0.000482
      f+3     :     0.004917
      f-3     :     0.004915
  1 C s       :     2.808813  s :     2.808813
      pz      :     0.818976  p :     2.800012
      px      :     0.827914
      py      :     1.153121
      dz2     :     0.045011  d :     0.463382
      dxz     :     0.006016
      dyz     :     0.143310
      dx2y2   :     0.121107
      dxy     :     0.147938
      f0      :     0.007611  f :     0.067835
      f+1     :     0.001550
      f-1     :     0.010351
      f+2     :     0.012327
      f-2     :     0.000925
      f+3     :     0.018614
      f-3     :     0.016456
  2 C s       :     2.668042  s :     2.668042
      pz      :     0.921081  p :     2.770221
      px      :     0.919532
      py      :     0.929608
      dz2     :     0.154529  d :     0.678020
      dxz     :     0.108906
      dyz     :     0.146643
      dx2y2   :     0.143745
      dxy     :     0.124197
      f0      :     0.015397  f :     0.089023
      f+1     :     0.009188
      f-1     :     0.013549
      f+2     :     0.011780
      f-2     :     0.015452
      f+3     :     0.013264
      f-3     :     0.010393
  3 C s       :     2.757720  s :     2.757720
      pz      :     0.942397  p :     2.936451
      px      :     1.005664
      py      :     0.988390
      dz2     :     0.078112  d :     0.396818
      dxz     :     0.099273
      dyz     :     0.107589
      dx2y2   :     0.031066
      dxy     :     0.080778
      f0      :     0.010355  f :     0.048566
      f+1     :     0.008691
      f-1     :     0.009084
      f+2     :     0.005697
      f-2     :     0.009289
      f+3     :     0.003073
      f-3     :     0.002377
  4 C s       :     2.723747  s :     2.723747
      pz      :     0.967760  p :     2.842466
      px      :     0.962203
      py      :     0.912503
      dz2     :     0.124364  d :     0.487708
      dxz     :     0.092269
      dyz     :     0.087760
      dx2y2   :     0.107449
      dxy     :     0.075866
      f0      :     0.010900  f :     0.064244
      f+1     :     0.010979
      f-1     :     0.006092
      f+2     :     0.006820
      f-2     :     0.013512
      f+3     :     0.007335
      f-3     :     0.008605
  5 C s       :     2.741193  s :     2.741193
      pz      :     0.969562  p :     2.794467
      px      :     0.927446
      py      :     0.897460
      dz2     :     0.086067  d :     0.555377
      dxz     :     0.140034
      dyz     :     0.095291
      dx2y2   :     0.101579
      dxy     :     0.132405
      f0      :     0.010086  f :     0.078829
      f+1     :     0.009231
      f-1     :     0.007511
      f+2     :     0.008141
      f-2     :     0.011111
      f+3     :     0.017337
      f-3     :     0.015413
  6 C s       :     2.782268  s :     2.782268
      pz      :     1.024696  p :     2.898253
      px      :     1.003108
      py      :     0.870449
      dz2     :     0.068708  d :     0.464220
      dxz     :     0.092325
      dyz     :     0.099560
      dx2y2   :     0.098126
      dxy     :     0.105501
      f0      :     0.007312  f :     0.063502
      f+1     :     0.005224
      f-1     :     0.006069
      f+2     :     0.009735
      f-2     :     0.006704
      f+3     :     0.013239
      f-3     :     0.015219
  7 N s       :     3.075879  s :     3.075879
      pz      :     1.269107  p :     3.518384
      px      :     1.168244
      py      :     1.081033
      dz2     :     0.043789  d :     0.252323
      dxz     :     0.038859
      dyz     :     0.054647
      dx2y2   :     0.053523
      dxy     :     0.061506
      f0      :     0.002943  f :     0.024264
      f+1     :     0.002431
      f-1     :     0.003392
      f+2     :     0.002458
      f-2     :     0.003643
      f+3     :     0.004407
      f-3     :     0.004991
  8 H s       :     0.783270  s :     0.783270
      pz      :     0.024406  p :     0.066894
      px      :     0.020416
      py      :     0.022072
  9 H s       :     0.803814  s :     0.803814
      pz      :     0.015427  p :     0.068476
      px      :     0.026217
      py      :     0.026832
 10 H s       :     0.789433  s :     0.789433
      pz      :     0.012941  p :     0.068268
      px      :     0.040813
      py      :     0.014513
 11 H s       :     0.800172  s :     0.800172
      pz      :     0.033792  p :     0.066250
      px      :     0.016092
      py      :     0.016366
 12 H s       :     0.801521  s :     0.801521
      pz      :     0.028904  p :     0.065645
      px      :     0.020319
      py      :     0.016422
 13 H s       :     0.811326  s :     0.811326
      pz      :     0.039295  p :     0.068391
      px      :     0.015842
      py      :     0.013253


                      *****************************
                      * MAYER POPULATION ANALYSIS *
                      *****************************

  NA   - Mulliken gross atomic population
  ZA   - Total nuclear charge
  QA   - Mulliken gross atomic charge
  VA   - Mayer's total valence
  BVA  - Mayer's bonded valence
  FA   - Mayer's free valence

  ATOM       NA         ZA         QA         VA         BVA        FA
  0 N      7.1554     7.0000    -0.1554     3.2496     2.7630     0.4866
  1 C      6.2425     6.0000    -0.2425     4.1025     3.6665     0.4359
  2 C      5.6649     6.0000     0.3351     3.7832     3.3988     0.3845
  3 C      6.2091     6.0000    -0.2091     4.0279     3.6881     0.3398
  4 C      6.1314     6.0000    -0.1314     3.9483     3.5879     0.3604
  5 C      6.0270     6.0000    -0.0270     3.9904     3.6306     0.3598
  6 C      6.0944     6.0000    -0.0944     4.0517     3.7181     0.3337
  7 N      7.3069     7.0000    -0.3069     3.0311     2.5642     0.4669
  8 H      0.8486     1.0000     0.1514     0.9863     0.9380     0.0483
  9 H      0.8682     1.0000     0.1318     0.9669     0.9167     0.0502
 10 H      0.8400     1.0000     0.1600     0.9702     0.9225     0.0477
 11 H      0.8607     1.0000     0.1393     0.9676     0.9194     0.0482
 12 H      0.8683     1.0000     0.1317     0.9868     0.9387     0.0481
 13 H      0.8828     1.0000     0.1172     0.9651     0.9143     0.0508

  Mayer bond orders larger than 0.1
B(  0-N ,  1-C ) :   2.7516 B(  1-C ,  2-C ) :   0.8894 B(  2-C ,  3-C ) :   0.8493 
B(  2-C ,  4-C ) :   0.8168 B(  2-C ,  7-N ) :   0.8936 B(  3-C ,  4-C ) :   0.9128 
B(  3-C ,  8-H ) :   0.9320 B(  3-C ,  9-H ) :   0.9158 B(  4-C ,  5-C ) :   0.9199 
B(  4-C , 10-H ) :   0.9067 B(  5-C ,  6-C ) :   0.9789 B(  5-C ,  7-N ) :   0.8223 
B(  5-C , 11-H ) :   0.9107 B(  6-C ,  7-N ) :   0.8639 B(  6-C , 12-H ) :   0.9383 
B(  6-C , 13-H ) :   0.9179 


                *******************************************
                * RELAXED MP2 DENSITY POPULATION ANALYSIS *
                *******************************************

------------------------------------------------------------------------------
                           ORCA POPULATION ANALYSIS
------------------------------------------------------------------------------
Input electron density              ... dsgdb9nsd_019330.pmp2re
BaseName (.gbw .S,...)              ... dsgdb9nsd_019330

                    ********************************
                    * MULLIKEN POPULATION ANALYSIS *
                    ********************************

-----------------------
MULLIKEN ATOMIC CHARGES
-----------------------
   0 N :   -0.052740
   1 C :   -0.256706
   2 C :    0.242631
   3 C :   -0.240610
   4 C :   -0.144360
   5 C :   -0.053061
   6 C :   -0.152735
   7 N :   -0.230846
   8 H :    0.162102
   9 H :    0.141538
  10 H :    0.163717
  11 H :    0.148005
  12 H :    0.145520
  13 H :    0.127546
Sum of atomic charges:    0.0000000

--------------------------------
MULLIKEN REDUCED ORBITAL CHARGES
--------------------------------
  0 N s       :     3.610765  s :     3.610765
      pz      :     1.046842  p :     3.368833
      px      :     1.049207
      py      :     1.272784
      dz2     :     0.007291  d :     0.067983
      dxz     :     0.004904
      dyz     :     0.021878
      dx2y2   :     0.012337
      dxy     :     0.021573
      f0      :     0.000712  f :     0.005159
      f+1     :     0.000349
      f-1     :     0.000602
      f+2     :     0.000991
      f-2     :     0.000425
      f+3     :     0.001329
      f-3     :     0.000750
  1 C s       :     3.204293  s :     3.204293
      pz      :     0.929066  p :     2.926264
      px      :     0.926167
      py      :     1.071031
      dz2     :     0.010439  d :     0.106180
      dxz     :     0.005153
      dyz     :     0.033973
      dx2y2   :     0.021727
      dxy     :     0.034889
      f0      :     0.002737  f :     0.019969
      f+1     :     0.000681
      f-1     :     0.002073
      f+2     :     0.004345
      f-2     :     0.000653
      f+3     :     0.006350
      f-3     :     0.003130
  2 C s       :     3.062277  s :     3.062277
      pz      :     0.859347  p :     2.503079
      px      :     0.925369
      py      :     0.718363
      dz2     :     0.044099  d :     0.174656
      dxz     :     0.028557
      dyz     :     0.040519
      dx2y2   :     0.029922
      dxy     :     0.031559
      f0      :     0.002738  f :     0.017357
      f+1     :     0.001976
      f-1     :     0.002480
      f+2     :     0.002354
      f-2     :     0.002768
      f+3     :     0.002549
      f-3     :     0.002491
  3 C s       :     3.225899  s :     3.225899
      pz      :     0.840012  p :     2.906029
      px      :     1.025733
      py      :     1.040284
      dz2     :     0.015846  d :     0.097208
      dxz     :     0.022295
      dyz     :     0.024060
      dx2y2   :     0.012405
      dxy     :     0.022602
      f0      :     0.001911  f :     0.011475
      f+1     :     0.002031
      f-1     :     0.002024
      f+2     :     0.001300
      f-2     :     0.002514
      f+3     :     0.000900
      f-3     :     0.000794
  4 C s       :     3.199241  s :     3.199241
      pz      :     0.937610  p :     2.808483
      px      :     0.927551
      py      :     0.943322
      dz2     :     0.027542  d :     0.122655
      dxz     :     0.027723
      dyz     :     0.021979
      dx2y2   :     0.026885
      dxy     :     0.018525
      f0      :     0.002095  f :     0.013981
      f+1     :     0.002171
      f-1     :     0.001503
      f+2     :     0.001801
      f-2     :     0.002318
      f+3     :     0.002229
      f-3     :     0.001864
  5 C s       :     3.183503  s :     3.183503
      pz      :     0.980084  p :     2.715450
      px      :     0.822802
      py      :     0.912564
      dz2     :     0.020374  d :     0.138187
      dxz     :     0.031667
      dyz     :     0.027649
      dx2y2   :     0.028700
      dxy     :     0.029798
      f0      :     0.001980  f :     0.015921
      f+1     :     0.002243
      f-1     :     0.001889
      f+2     :     0.001870
      f-2     :     0.002456
      f+3     :     0.002642
      f-3     :     0.002841
  6 C s       :     3.220300  s :     3.220300
      pz      :     1.034496  p :     2.806016
      px      :     0.942340
      py      :     0.829180
      dz2     :     0.016741  d :     0.113016
      dxz     :     0.018113
      dyz     :     0.024162
      dx2y2   :     0.026491
      dxy     :     0.027509
      f0      :     0.001559  f :     0.013403
      f+1     :     0.001610
      f-1     :     0.001570
      f+2     :     0.001776
      f-2     :     0.001834
      f+3     :     0.002471
      f-3     :     0.002583
  7 N s       :     3.650915  s :     3.650915
      pz      :     1.284483  p :     3.465857
      px      :     1.168667
      py      :     1.012708
      dz2     :     0.021785  d :     0.106375
      dxz     :     0.017563
      dyz     :     0.020650
      dx2y2   :     0.021994
      dxy     :     0.024382
      f0      :     0.000982  f :     0.007699
      f+1     :     0.000973
      f-1     :     0.001157
      f+2     :     0.000959
      f-2     :     0.001018
      f+3     :     0.001401
      f-3     :     0.001209
  8 H s       :     0.812522  s :     0.812522
      pz      :     0.010183  p :     0.025376
      px      :     0.007336
      py      :     0.007857
  9 H s       :     0.832369  s :     0.832369
      pz      :     0.006670  p :     0.026093
      px      :     0.009606
      py      :     0.009818
 10 H s       :     0.810516  s :     0.810516
      pz      :     0.005108  p :     0.025767
      px      :     0.015223
      py      :     0.005436
 11 H s       :     0.826737  s :     0.826737
      pz      :     0.012307  p :     0.025258
      px      :     0.006569
      py      :     0.006382
 12 H s       :     0.829543  s :     0.829543
      pz      :     0.009960  p :     0.024937
      px      :     0.008240
      py      :     0.006736
 13 H s       :     0.846771  s :     0.846771
      pz      :     0.013656  p :     0.025684
      px      :     0.006521
      py      :     0.005507


                     *******************************
                     * LOEWDIN POPULATION ANALYSIS *
                     *******************************

----------------------
LOEWDIN ATOMIC CHARGES
----------------------
   0 N :    0.075332
   1 C :   -0.154847
   2 C :   -0.219328
   3 C :   -0.159015
   4 C :   -0.131221
   5 C :   -0.188778
   6 C :   -0.231430
   7 N :    0.157999
   8 H :    0.158098
   9 H :    0.135052
  10 H :    0.149475
  11 H :    0.140455
  12 H :    0.141161
  13 H :    0.127048

-------------------------------
LOEWDIN REDUCED ORBITAL CHARGES
-------------------------------
  0 N s       :     3.298396  s :     3.298396
      pz      :     1.000774  p :     3.468298
      px      :     1.003445
      py      :     1.464079
      dz2     :     0.016890  d :     0.138103
      dxz     :     0.004892
      dyz     :     0.037547
      dx2y2   :     0.041031
      dxy     :     0.037743
      f0      :     0.002195  f :     0.019870
      f+1     :     0.000604
      f-1     :     0.003151
      f+2     :     0.003424
      f-2     :     0.000484
      f+3     :     0.005032
      f-3     :     0.004980
  1 C s       :     2.814541  s :     2.814541
      pz      :     0.838899  p :     2.828221
      px      :     0.845551
      py      :     1.143772
      dz2     :     0.045720  d :     0.444045
      dxz     :     0.006011
      dyz     :     0.131866
      dx2y2   :     0.122832
      dxy     :     0.137617
      f0      :     0.007418  f :     0.068039
      f+1     :     0.001525
      f-1     :     0.010765
      f+2     :     0.012025
      f-2     :     0.000904
      f+3     :     0.018235
      f-3     :     0.017167
  2 C s       :     2.677116  s :     2.677116
      pz      :     0.915411  p :     2.770677
      px      :     0.919676
      py      :     0.935590
      dz2     :     0.153786  d :     0.683122
      dxz     :     0.109622
      dyz     :     0.151179
      dx2y2   :     0.140704
      dxy     :     0.127831
      f0      :     0.015297  f :     0.088412
      f+1     :     0.009142
      f-1     :     0.013282
      f+2     :     0.011867
      f-2     :     0.015251
      f+3     :     0.013448
      f-3     :     0.010125
  3 C s       :     2.764184  s :     2.764184
      pz      :     0.945093  p :     2.962855
      px      :     1.017710
      py      :     1.000052
      dz2     :     0.078050  d :     0.384269
      dxz     :     0.094945
      dyz     :     0.103046
      dx2y2   :     0.032387
      dxy     :     0.075842
      f0      :     0.010216  f :     0.047706
      f+1     :     0.008599
      f-1     :     0.008892
      f+2     :     0.005839
      f-2     :     0.008810
      f+3     :     0.003007
      f-3     :     0.002343
  4 C s       :     2.730695  s :     2.730695
      pz      :     0.967296  p :     2.856058
      px      :     0.964715
      py      :     0.924048
      dz2     :     0.122378  d :     0.480857
      dxz     :     0.091912
      dyz     :     0.086575
      dx2y2   :     0.106313
      dxy     :     0.073679
      f0      :     0.010811  f :     0.063611
      f+1     :     0.010813
      f-1     :     0.006008
      f+2     :     0.006893
      f-2     :     0.013208
      f+3     :     0.007266
      f-3     :     0.008613
  5 C s       :     2.749214  s :     2.749214
      pz      :     0.976916  p :     2.813148
      px      :     0.928009
      py      :     0.908222
      dz2     :     0.085390  d :     0.548717
      dxz     :     0.138807
      dyz     :     0.094888
      dx2y2   :     0.101469
      dxy     :     0.128163
      f0      :     0.009951  f :     0.077700
      f+1     :     0.008978
      f-1     :     0.007604
      f+2     :     0.008206
      f-2     :     0.010561
      f+3     :     0.017198
      f-3     :     0.015201
  6 C s       :     2.790668  s :     2.790668
      pz      :     1.034038  p :     2.926372
      px      :     1.011265
      py      :     0.881069
      dz2     :     0.065395  d :     0.452186
      dxz     :     0.090870
      dyz     :     0.099671
      dx2y2   :     0.093052
      dxy     :     0.103198
      f0      :     0.007182  f :     0.062203
      f+1     :     0.005074
      f-1     :     0.005867
      f+2     :     0.009830
      f-2     :     0.006440
      f+3     :     0.012821
      f-3     :     0.014990
  7 N s       :     3.086467  s :     3.086467
      pz      :     1.252768  p :     3.479109
      px      :     1.150539
      py      :     1.075802
      dz2     :     0.043260  d :     0.252009
      dxz     :     0.038813
      dyz     :     0.054352
      dx2y2   :     0.054853
      dxy     :     0.060731
      f0      :     0.002974  f :     0.024416
      f+1     :     0.002457
      f-1     :     0.003448
      f+2     :     0.002497
      f-2     :     0.003642
      f+3     :     0.004426
      f-3     :     0.004972
  8 H s       :     0.774235  s :     0.774235
      pz      :     0.024352  p :     0.067668
      px      :     0.020858
      py      :     0.022458
  9 H s       :     0.795440  s :     0.795440
      pz      :     0.015883  p :     0.069508
      px      :     0.026527
      py      :     0.027097
 10 H s       :     0.781468  s :     0.781468
      pz      :     0.013471  p :     0.069057
      px      :     0.040336
      py      :     0.015250
 11 H s       :     0.792441  s :     0.792441
      pz      :     0.033511  p :     0.067104
      px      :     0.016528
      py      :     0.017066
 12 H s       :     0.792354  s :     0.792354
      pz      :     0.028723  p :     0.066485
      px      :     0.020737
      py      :     0.017024
 13 H s       :     0.803375  s :     0.803375
      pz      :     0.039045  p :     0.069578
      px      :     0.016336
      py      :     0.014197


                      *****************************
                      * MAYER POPULATION ANALYSIS *
                      *****************************

  NA   - Mulliken gross atomic population
  ZA   - Total nuclear charge
  QA   - Mulliken gross atomic charge
  VA   - Mayer's total valence
  BVA  - Mayer's bonded valence
  FA   - Mayer's free valence

  ATOM       NA         ZA         QA         VA         BVA        FA
  0 N      7.0527     7.0000    -0.0527     3.3877     2.9138     0.4739
  1 C      6.2567     6.0000    -0.2567     4.2446     3.8243     0.4203
  2 C      5.7574     6.0000     0.2426     3.9282     3.5506     0.3777
  3 C      6.2406     6.0000    -0.2406     3.9991     3.6641     0.3350
  4 C      6.1444     6.0000    -0.1444     3.9546     3.6003     0.3543
  5 C      6.0531     6.0000    -0.0531     4.0322     3.6794     0.3528
  6 C      6.1527     6.0000    -0.1527     4.0615     3.7319     0.3296
  7 N      7.2308     7.0000    -0.2308     3.1213     2.6666     0.4546
  8 H      0.8379     1.0000     0.1621     0.9789     0.9315     0.0474
  9 H      0.8585     1.0000     0.1415     0.9667     0.9176     0.0492
 10 H      0.8363     1.0000     0.1637     0.9668     0.9197     0.0471
 11 H      0.8520     1.0000     0.1480     0.9591     0.9117     0.0475
 12 H      0.8545     1.0000     0.1455     0.9782     0.9311     0.0471
 13 H      0.8725     1.0000     0.1275     0.9649     0.9151     0.0498

  Mayer bond orders larger than 0.1
B(  0-N ,  1-C ) :   2.8561 B(  1-C ,  2-C ) :   0.9463 B(  2-C ,  3-C ) :   0.8502 
B(  2-C ,  4-C ) :   0.8159 B(  2-C ,  7-N ) :   0.9355 B(  3-C ,  4-C ) :   0.8997 
B(  3-C ,  8-H ) :   0.9175 B(  3-C ,  9-H ) :   0.8995 B(  4-C ,  5-C ) :   0.9330 
B(  4-C , 10-H ) :   0.9070 B(  5-C ,  6-C ) :   0.9726 B(  5-C ,  7-N ) :   0.8591 
B(  5-C , 11-H ) :   0.9001 B(  6-C ,  7-N ) :   0.8899 B(  6-C , 12-H ) :   0.9224 
B(  6-C , 13-H ) :   0.8991 


-------
TIMINGS
-------

Total time                :  587.995 sec
Integral trafo            :    3.616 sec (  0.6%)
FC preparation            :    1.532 sec (  0.3%)
I/O of integrals          :    0.029 sec (  0.0%)
K(i,j) Operators          :    3.507 sec (  0.6%)
T(i,j) pair energies      :    0.388 sec (  0.1%)
V-calculation             :    0.014 sec (  0.0%)
V**(-1/2)                 :    0.073 sec (  0.0%)
Gamma(ia|P)               :    3.405 sec (  0.6%)
Gamma-Trafo               :    0.683 sec (  0.1%)
D(virtual)                :    1.298 sec (  0.2%)
D(internal)               :    1.132 sec (  0.2%)
W(virtual)                :    0.000 sec (  0.0%)
W(internal)               :    0.000 sec (  0.0%)
L(virtual)                :    5.406 sec (  0.9%)
L(internal)               :    0.090 sec (  0.0%)
G(D)                      :   63.666 sec ( 10.8%)
G(Z)                      :    0.000 sec (  0.0%)
Z-Vector Solution         :  502.393 sec ( 85.4%)
3-Index Derivative        :    0.000 sec (  0.0%)
2-Index Derivative        :    0.000 sec (  0.0%)
Separable Gradient (RIJ)  :    0.000 sec (  0.0%)
Separable Gradient (X)    :    0.000 sec (  0.0%)


---------------------------------------
MP2 TOTAL ENERGY:     -340.894197659 Eh
---------------------------------------

-------------------------   --------------------
FINAL SINGLE POINT ENERGY      -340.894197659340
-------------------------   --------------------


                            ***************************************
                            *     ORCA property calculations      *
                            ***************************************

                                    ---------------------
                                    Active property flags
                                    ---------------------
   (+) Dipole Moment


------------------------------------------------------------------------------
                       ORCA ELECTRIC PROPERTIES CALCULATION
------------------------------------------------------------------------------

Dipole Moment Calculation                       ... on
Quadrupole Moment Calculation                   ... off
Polarizability Calculation                      ... off
GBWName                                         ... dsgdb9nsd_019330.gbw
Electron density file                           ... dsgdb9nsd_019330.scfp.tmp

-------------
DIPOLE MOMENT
-------------
                                X             Y             Z
Electronic contribution:      0.13815      -4.92836       1.00068
Nuclear contribution   :      0.21641       7.16183      -1.51390
                        -----------------------------------------
Total Dipole Moment    :      0.35456       2.23347      -0.51322
                        -----------------------------------------
Magnitude (a.u.)       :      2.31894
Magnitude (Debye)      :      5.89428


                         *** MP2 UNRELAXED DENSITY ***

------------------------------------------------------------------------------
                       ORCA ELECTRIC PROPERTIES CALCULATION
------------------------------------------------------------------------------

Dipole Moment Calculation                       ... on
Quadrupole Moment Calculation                   ... off
Polarizability Calculation                      ... off
GBWName                                         ... dsgdb9nsd_019330.gbw
Electron density file                           ... dsgdb9nsd_019330.pmp2ur

-------------
DIPOLE MOMENT
-------------
                                X             Y             Z
Electronic contribution:      0.12710      -4.98126       1.01555
Nuclear contribution   :      0.21641       7.16183      -1.51390
                        -----------------------------------------
Total Dipole Moment    :      0.34351       2.18057      -0.49835
                        -----------------------------------------
Magnitude (a.u.)       :      2.26302
Magnitude (Debye)      :      5.75213


                           *** MP2 RELAXED DENSITY ***

------------------------------------------------------------------------------
                       ORCA ELECTRIC PROPERTIES CALCULATION
------------------------------------------------------------------------------

Dipole Moment Calculation                       ... on
Quadrupole Moment Calculation                   ... off
Polarizability Calculation                      ... off
GBWName                                         ... dsgdb9nsd_019330.gbw
Electron density file                           ... dsgdb9nsd_019330.pmp2re

-------------
DIPOLE MOMENT
-------------
                                X             Y             Z
Electronic contribution:      0.09539      -5.17339       1.05439
Nuclear contribution   :      0.21641       7.16183      -1.51390
                        -----------------------------------------
Total Dipole Moment    :      0.31180       1.98844      -0.45951
                        -----------------------------------------
Magnitude (a.u.)       :      2.06452
Magnitude (Debye)      :      5.24760


Timings for individual modules:

Sum of individual times         ...      671.121 sec (=  11.185 min)
GTO integral calculation        ...        0.384 sec (=   0.006 min)   0.1 %
SCF iterations                  ...       82.602 sec (=   1.377 min)  12.3 %
MP2 module                      ...      588.135 sec (=   9.802 min)  87.6 %
                             ****ORCA TERMINATED NORMALLY****
TOTAL RUN TIME: 0 days 0 hours 11 minutes 11 seconds 556 msec
