
                                 *****************
                                 * O   R   C   A *
                                 *****************

           --- An Ab Initio, DFT and Semiempirical electronic structure package ---

                  #######################################################
                  #                        -***-                        #
                  #  Department of molecular theory and spectroscopy    #
                  #              Directorship: Frank Neese              #
                  # Max Planck Institute for Chemical Energy Conversion #
                  #                  D-45470 Muelheim/Ruhr              #
                  #                       Germany                       #
                  #                                                     #
                  #                  All rights reserved                #
                  #                        -***-                        #
                  #######################################################


                         Program Version 3.0.3 - RELEASE   -


 With contributions from (in alphabetic order):
   Ute Becker             : Parallelization
   Dmytro Bykov           : SCF Hessian
   Dmitry Ganyushin       : Spin-Orbit,Spin-Spin,Magnetic field MRCI
   Andreas Hansen         : Spin unrestricted coupled pair/coupled cluster methods
   Dimitrios Liakos       : Extrapolation schemes; parallel MDCI
   Robert Izsak           : Overlap fitted RIJCOSX, COSX-SCS-MP3
   Christian Kollmar      : KDIIS, OOCD, Brueckner-CCSD(T), CCSD density
   Simone Kossmann        : Meta GGA functionals, TD-DFT gradient, OOMP2, MP2 Hessian
   Taras Petrenko         : DFT Hessian,TD-DFT gradient, ASA and ECA modules, normal mode analysis, Resonance Raman, ABS, FL, XAS/XES, NRVS
   Christoph Reimann      : Effective Core Potentials
   Michael Roemelt        : Restricted open shell CIS
   Christoph Riplinger    : Improved optimizer, TS searches, QM/MM, DLPNO-CCSD
   Barbara Sandhoefer     : DKH picture change effects
   Igor Schapiro          : Molecular dynamics
   Kantharuban Sivalingam : CASSCF convergence, NEVPT2
   Boris Wezisla          : Elementary symmetry handling
   Frank Wennmohs         : Technical directorship


 We gratefully acknowledge several colleagues who have allowed us to
 interface, adapt or use parts of their codes:
   Stefan Grimme, W. Hujo, H. Kruse, T. Risthaus : VdW corrections, initial TS optimization,
                                                   DFT functionals, gCP
   Ed Valeev                                     : LibInt (2-el integral package), F12 methods
   Garnet Chan, S. Sharma, R. Olivares           : DMRG
   Ulf Ekstrom                                   : XCFun DFT Library
   Mihaly Kallay                                 : mrcc  (arbitrary order and MRCC methods)
   Andreas Klamt, Michael Diedenhofen            : otool_cosmo (COSMO solvation model)
   Frank Weinhold                                : gennbo (NPA and NBO analysis)
   Christopher J. Cramer and Donald G. Truhlar   : smd solvation model


 Your calculation uses the libint2 library for the computation of 2-el integrals
 For citations please refer to: http://libint.valeyev.net

 This ORCA versions uses:
   CBLAS   interface :  Fast vector & matrix operations
   LAPACKE interface :  Fast linear algebra routines
   SCALAPACK package :  Parallel linear algebra routines


Your calculation utilizes the basis: Ahlrichs-TZV
Cite in your paper:
H - Kr: A. Schaefer, H. Horn and R. Ahlrichs, J. Chem. Phys. 97, 2571 (1992).

The def2-TZV basis will be loaded
Cite in your paper:
 	F. Weigend, R. Ahlrichs, Phys. Chem. Chem. Phys. 2005, 7, 3297.

================================================================================
                                        WARNINGS
                       Please study these warnings very carefully!
================================================================================
Now building the actual basis set


INFO   : the flag for use of LIBINT has been found!

================================================================================
                                       INPUT FILE
================================================================================
NAME = dsgdb9nsd_063590.inp
|  1> ! RI-MP2 RIJK def2-TZVP def2-TZVP/C def2-TZVP/JK TIGHTSCF
|  2> % maxcore 2000
|  3> % mp2 density relaxed end
|  4> *xyz 0 1
|  5>  C       -0.2495110390     1.4879493430     0.0949674777 
|  6>  C        0.0277976295     0.0075355675     0.0697450084 
|  7>  O       -1.1174245812    -0.7276670630    -0.2542635072 
|  8>  C        1.3732209883    -0.5202087240    -0.4168471361 
|  9>  C        0.9869593822    -0.6562331828     1.0318031771 
| 10>  C        1.6688623385     0.0207589335     2.2210423623 
| 11>  C        1.6586591737    -1.0803479271     3.3051231048 
| 12>  C        0.5031656139    -1.9737216491     2.8464569826 
| 13>  O        0.5958385033    -1.9684180906     1.4217725228 
| 14>  H        0.6531561130     2.0602242104     0.3259868776 
| 15>  H       -0.6169755589     1.8165561214    -0.8828717061 
| 16>  H       -1.0162771610     1.7274664846     0.8394374469 
| 17>  H       -1.0290654398    -1.5716639535     0.2118028297 
| 18>  H        1.3537556683    -1.4271133741    -1.0125165501 
| 19>  H        2.1584662683     0.1854012394    -0.6720943828 
| 20>  H        2.6818684760     0.3538291504     1.9818397375 
| 21>  H        1.1021535481     0.8977293158     2.5489863013 
| 22>  H        2.5933905547    -1.6480668250     3.2828277839 
| 23>  H        1.5205322154    -0.6890539008     4.3157481032 
| 24>  H        0.5766869220    -3.0116622067     3.1797171344 
| 25>  H       -0.4659145653    -1.5661106794     3.1735077721 
| 26> *
| 27> 
| 28>                          ****END OF INPUT****
================================================================================

                       ****************************
                       * Single Point Calculation *
                       ****************************

---------------------------------
CARTESIAN COORDINATES (ANGSTROEM)
---------------------------------
  C     -0.249511    1.487949    0.094967
  C      0.027798    0.007536    0.069745
  O     -1.117425   -0.727667   -0.254264
  C      1.373221   -0.520209   -0.416847
  C      0.986959   -0.656233    1.031803
  C      1.668862    0.020759    2.221042
  C      1.658659   -1.080348    3.305123
  C      0.503166   -1.973722    2.846457
  O      0.595839   -1.968418    1.421773
  H      0.653156    2.060224    0.325987
  H     -0.616976    1.816556   -0.882872
  H     -1.016277    1.727466    0.839437
  H     -1.029065   -1.571664    0.211803
  H      1.353756   -1.427113   -1.012517
  H      2.158466    0.185401   -0.672094
  H      2.681868    0.353829    1.981840
  H      1.102154    0.897729    2.548986
  H      2.593391   -1.648067    3.282828
  H      1.520532   -0.689054    4.315748
  H      0.576687   -3.011662    3.179717
  H     -0.465915   -1.566111    3.173508

----------------------------
CARTESIAN COORDINATES (A.U.)
----------------------------
  NO LB      ZA    FRAG    MASS        X           Y           Z
   0 C     6.0000    0    12.011         -0.471507531100145          2.811816759418056          0.179462524482274
   1 C     6.0000    0    12.011          0.052529906927210          0.014240158838678          0.131798965084037
   2 O     8.0000    0    15.999         -2.111626433779650         -1.375091465744822         -0.480488394458314
   3 C     6.0000    0    12.011          2.595011589239679         -0.983052020836627         -0.787726926938399
   4 C     6.0000    0    12.011          1.865082937662113         -1.240100995483482          1.949825428828848
   5 C     6.0000    0    12.011          3.153692774980384          0.039228699147283          4.197161796584503
   6 C     6.0000    0    12.011          3.134411587809119         -2.041561711568521          6.245777506967507
   7 C     6.0000    0    12.011          0.950845210277360         -3.729793381390420          5.379024149101849
   8 O     8.0000    0    15.999          1.125971591282534         -3.719771108290190          2.686760692826309
   9 H     1.0000    0     1.008          1.234286176266522          3.893259532130155          0.616025921916108
  10 H     1.0000    0     1.008         -1.165914837644001          3.432793576344206         -1.668385735916813
  11 H     1.0000    0     1.008         -1.920485510448996          3.264438561421694          1.586306881199063
  12 H     1.0000    0     1.008         -1.944651855105227         -2.970014446670945          0.400249342522562
  13 H     1.0000    0     1.008          2.558227465330539         -2.696853439105306         -1.913378985751756
  14 H     1.0000    0     1.008          4.078910116393991          0.350357567355570         -1.270074319638834
  15 H     1.0000    0     1.008          5.067996946836759          0.668640192454033          3.745134345197383
  16 H     1.0000    0     1.008          2.082768363438603          1.696462549254504          4.816886028573879
  17 H     1.0000    0     1.008          4.900797906681121         -3.114394949651122          6.203645456398617
  18 H     1.0000    0     1.008          2.873389464910558         -1.302123164022142          8.155581978038111
  19 H     1.0000    0     1.008          1.089780347594006         -5.691216778543937          6.008794567352873
  20 H     1.0000    0     1.008         -0.880450930221970         -2.959520279475347          5.997060573139577

--------------------------------
INTERNAL COORDINATES (ANGSTROEM)
--------------------------------
 C      0   0   0   0.000000     0.000     0.000
 C      1   0   0   1.506374     0.000     0.000
 O      2   1   0   1.398942   111.695     0.000
 C      2   1   3   1.524943   120.522   144.821
 C      4   2   1   1.505420    59.857   112.118
 C      5   4   2   1.528921   126.445   245.329
 C      6   5   4   1.545242   103.134   219.302
 C      7   6   5   1.530901   102.159   336.941
 O      5   4   2   1.423686   114.668   104.651
 H      1   2   3   1.093470   111.463   181.306
 H      1   2   3   1.095072   109.982   301.030
 H      1   2   3   1.095233   110.805    60.170
 H      3   2   1   0.968171   105.779   211.186
 H      4   2   1   1.085208   116.650   218.876
 H      4   2   1   1.086115   119.211     4.753
 H      6   5   4   1.092856   112.217   340.186
 H      6   5   4   1.094433   110.912   100.487
 H      7   6   5   1.093858   110.481    93.516
 H      7   6   5   1.092498   113.241   215.102
 H      8   7   6   1.092606   114.343   154.463
 H      8   7   6   1.101011   111.057   277.893

---------------------------
INTERNAL COORDINATES (A.U.)
---------------------------
 C      0   0   0   0.000000     0.000     0.000
 C      1   0   0   2.846633     0.000     0.000
 O      2   1   0   2.643617   111.695     0.000
 C      2   1   3   2.881724   120.522   144.821
 C      4   2   1   2.844831    59.857   112.118
 C      5   4   2   2.889242   126.445   245.329
 C      6   5   4   2.920083   103.134   219.302
 C      7   6   5   2.892983   102.159   336.941
 O      5   4   2   2.690376   114.668   104.651
 H      1   2   3   2.066359   111.463   181.306
 H      1   2   3   2.069386   109.982   301.030
 H      1   2   3   2.069690   110.805    60.170
 H      3   2   1   1.829579   105.779   211.186
 H      4   2   1   2.050746   116.650   218.876
 H      4   2   1   2.052461   119.211     4.753
 H      6   5   4   2.065199   112.217   340.186
 H      6   5   4   2.068178   110.912   100.487
 H      7   6   5   2.067091   110.481    93.516
 H      7   6   5   2.064523   113.241   215.102
 H      8   7   6   2.064726   114.343   154.463
 H      8   7   6   2.080609   111.057   277.893

---------------------
BASIS SET INFORMATION
---------------------
There are 3 groups of distinct atoms

 Group   1 Type C   : 11s6p2d1f contracted to 5s3p2d1f pattern {62111/411/11/1}
 Group   2 Type O   : 11s6p2d1f contracted to 5s3p2d1f pattern {62111/411/11/1}
 Group   3 Type H   : 5s1p contracted to 3s1p pattern {311/1}

Atom   0C    basis set group =>   1
Atom   1C    basis set group =>   1
Atom   2O    basis set group =>   2
Atom   3C    basis set group =>   1
Atom   4C    basis set group =>   1
Atom   5C    basis set group =>   1
Atom   6C    basis set group =>   1
Atom   7C    basis set group =>   1
Atom   8O    basis set group =>   2
Atom   9H    basis set group =>   3
Atom  10H    basis set group =>   3
Atom  11H    basis set group =>   3
Atom  12H    basis set group =>   3
Atom  13H    basis set group =>   3
Atom  14H    basis set group =>   3
Atom  15H    basis set group =>   3
Atom  16H    basis set group =>   3
Atom  17H    basis set group =>   3
Atom  18H    basis set group =>   3
Atom  19H    basis set group =>   3
Atom  20H    basis set group =>   3
-------------------------------
AUXILIARY BASIS SET INFORMATION
-------------------------------
There are 3 groups of distinct atoms

 Group   1 Type C   : 14s10p6d2f1g contracted to 10s8p5d1f1g pattern {5111111111/31111111/21111/2/1}
 Group   2 Type O   : 14s10p6d2f1g contracted to 10s8p4d2f1g pattern {5111111111/31111111/3111/11/1}
 Group   3 Type H   : 4s2p2d contracted to 2s2p2d pattern {31/11/11}

Atom   0C    basis set group =>   1
Atom   1C    basis set group =>   1
Atom   2O    basis set group =>   2
Atom   3C    basis set group =>   1
Atom   4C    basis set group =>   1
Atom   5C    basis set group =>   1
Atom   6C    basis set group =>   1
Atom   7C    basis set group =>   1
Atom   8O    basis set group =>   2
Atom   9H    basis set group =>   3
Atom  10H    basis set group =>   3
Atom  11H    basis set group =>   3
Atom  12H    basis set group =>   3
Atom  13H    basis set group =>   3
Atom  14H    basis set group =>   3
Atom  15H    basis set group =>   3
Atom  16H    basis set group =>   3
Atom  17H    basis set group =>   3
Atom  18H    basis set group =>   3
Atom  19H    basis set group =>   3
Atom  20H    basis set group =>   3
------------------------------------------------------------------------------
                           ORCA GTO INTEGRAL CALCULATION
                           -- RI-GTO INTEGRALS CHOSEN --
------------------------------------------------------------------------------

                         BASIS SET STATISTICS AND STARTUP INFO

Gaussian basis set:
 # of primitive gaussian shells          ...  252
 # of primitive gaussian functions       ...  510
 # of contracted shells                  ...  147
 # of contracted basis functions         ...  351
 Highest angular momentum                ...    3
 Maximum contraction depth               ...    6
Auxiliary gaussian basis set:
 # of primitive gaussian shells          ...  393
 # of primitive gaussian functions       ... 1113
 # of contracted shells                  ...  297
 # of contracted aux-basis functions     ...  895
 Highest angular momentum                ...    4
 Maximum contraction depth               ...    5
Ratio of auxiliary to basis functions    ...  2.55
Integral package used                  ... LIBINT
 One Electron integrals                  ... done
 Ordering auxiliary basis shells         ... done
 Integral threshhold             Thresh  ...  2.500e-11
 Primitive cut-off               TCut    ...  2.500e-12
 Pre-screening matrix                    ... done
 Shell pair data                         ... 
 Ordering of the shell pairs             ... done (   0.002 sec) 10045 of 10878 pairs
 Determination of significant pairs      ... done (   0.000 sec)
 Creation of shell pair data             ... done (   0.002 sec)
 Storage of shell pair data              ... done (   0.002 sec)
 Shell pair data done in (   0.007 sec)
 Computing two index integrals           ... done
 Cholesky decomposition of the V-matrix  ... done


Timings:
 Total evaluation time                   ...   0.470 sec (  0.008 min)
 One electron matrix time                ...   0.119 sec (  0.002 min) = 25.3%
 Schwartz matrix evaluation time         ...   0.243 sec (  0.004 min) = 51.8%
 Two index repulsion integral time       ...   0.028 sec (  0.000 min) =  6.0%
 Cholesky decomposition of V             ...   0.042 sec (  0.001 min) =  8.9%
 Three index repulsion integral time     ...   0.000 sec (  0.000 min) =  0.0%

-------------------------------------------------------------------------------
                                 ORCA SCF
-------------------------------------------------------------------------------

------------
SCF SETTINGS
------------
Hamiltonian:
 Ab initio Hamiltonian  Method          .... Hartree-Fock(GTOs)
 RI-approximation to the Coulomb term is turned on
   Number of auxiliary basis functions  .... 895
   RI-JK (J+K treated both via RI)      .... on


General Settings:
 Integral files         IntName         .... dsgdb9nsd_063590
 Hartree-Fock type      HFTyp           .... RHF
 Total Charge           Charge          ....    0
 Multiplicity           Mult            ....    1
 Number of Electrons    NEL             ....   70
 Basis Dimension        Dim             ....  351
 Nuclear Repulsion      ENuc            ....    493.0331482017 Eh

Convergence Acceleration:
 DIIS                   CNVDIIS         .... on
   Start iteration      DIISMaxIt       ....    12
   Startup error        DIISStart       ....  0.200000
   # of expansion vecs  DIISMaxEq       ....     5
   Bias factor          DIISBfac        ....   1.050
   Max. coefficient     DIISMaxC        ....  10.000
 Newton-Raphson         CNVNR           .... off
 SOSCF                  CNVSOSCF        .... on
   Start iteration      SOSCFMaxIt      ....   150
   Startup grad/error   SOSCFStart      ....  0.003300
 Level Shifting         CNVShift        .... on
   Level shift para.    LevelShift      ....    0.2500
   Turn off err/grad.   ShiftErr        ....    0.0010
 Zerner damping         CNVZerner       .... off
 Static damping         CNVDamp         .... on
   Fraction old density DampFac         ....    0.7000
   Max. Damping (<1)    DampMax         ....    0.9800
   Min. Damping (>=0)   DampMin         ....    0.0000
   Turn off err/grad.   DampErr         ....    0.1000
 Fernandez-Rico         CNVRico         .... off

SCF Procedure:
 Maximum # iterations   MaxIter         ....   125
 SCF integral mode      SCFMode         .... Direct
   Integral package                     .... LIBINT
 Reset frequeny         DirectResetFreq ....    20
 Integral Threshold     Thresh          ....  2.500e-11 Eh
 Primitive CutOff       TCut            ....  2.500e-12 Eh

Convergence Tolerance:
 Convergence Check Mode ConvCheckMode   .... Total+1el-Energy
 Energy Change          TolE            ....  1.000e-08 Eh
 1-El. energy change                    ....  1.000e-05 Eh
 Orbital Gradient       TolG            ....  1.000e-05
 Orbital Rotation angle TolX            ....  1.000e-05
 DIIS Error             TolErr          ....  5.000e-07


Diagonalization of the overlap matrix:
Smallest eigenvalue                        ... 5.962e-05
Time for diagonalization                   ...    0.039 sec
Threshold for overlap eigenvalues          ... 1.000e-08
Number of eigenvalues below threshold      ... 0
Time for construction of square roots      ...    0.021 sec
Total time needed                          ...    0.061 sec

-------------------
DFT GRID GENERATION
-------------------

General Integration Accuracy     IntAcc      ...  4.340
Radial Grid Type                 RadialGrid  ... Gauss-Chebyshev
Angular Grid (max. acc.)         AngularGrid ... Lebedev-110
Angular grid pruning method      GridPruning ... 3 (G Style)
Weight generation scheme         WeightScheme... Becke
Basis function cutoff            BFCut       ...    1.0000e-11
Integration weight cutoff        WCut        ...    1.0000e-14
Grids for H and He will be reduced by one unit

# of grid points (after initial pruning)     ...  24552 (   0.0 sec)
# of grid points (after weights+screening)   ...  22274 (   0.2 sec)
nearest neighbour list constructed           ...    0.0 sec
Grid point re-assignment to atoms done       ...    0.0 sec
Grid point division into batches done        ...    0.0 sec
Reduced shell lists constructed in    1.7 sec

Total number of grid points                  ...    22274
Total number of batches                      ...      360
Average number of points per batch           ...       61
Average number of grid points per atom       ...     1061
Average number of shells per batch           ...    99.78 (67.88%)
Average number of basis functions per batch  ...   244.18 (69.57%)
Average number of large shells per batch     ...    77.16 (77.33%)
Average number of large basis fcns per batch ...   185.42 (75.94%)
Average number of aux-shells per batch       ...    99.78 (33.60%)
Average number of aux functions per batch    ...   244.18 (  inf%)
Maximum spatial batch extension              ...  20.92, 18.60, 18.01 au
Average spatial batch extension              ...   3.66,  3.49,  3.44 au

Time for grid setup =    1.880 sec

------------------------------
INITIAL GUESS: MODEL POTENTIAL
------------------------------
Loading Hartree-Fock densities                     ... done
Calculating cut-offs                               ... done
Setting up the integral package                    ... done
Initializing the effective Hamiltonian             ... done
Starting the Coulomb interaction                   ... done (   0.9 sec)
Reading the grid                                   ... done
Mapping shells                                     ... done
Starting the XC term evaluation                    ... done (   0.9 sec)
Transforming the Hamiltonian                       ... done (   0.0 sec)
Diagonalizing the Hamiltonian                      ... done (   0.1 sec)
Back transforming the eigenvectors                 ... done (   0.0 sec)
Now organizing SCF variables                       ... done
                      ------------------
                      INITIAL GUESS DONE (   3.9 sec)
                      ------------------
--------------
SCF ITERATIONS
--------------
ITER       Energy         Delta-E        Max-DP      RMS-DP      [F,P]     Damp
  0   -421.4861015583   0.000000000000 0.03407672  0.00079303  0.2985357 0.7000
  1   -421.3350826459   0.151018912408 0.03355593  0.00082746  0.2480153 0.7000
                               ***Turning on DIIS***
  2   -421.3830208438  -0.047938197854 0.02370137  0.00060506  0.1844999 0.7000
  3   -422.6770373127  -1.294016468975 0.01383676  0.00034500  0.1310501 0.7000
  4   -421.8737662507   0.803271062039 0.04920102  0.00086704  0.0856489 0.0000
  5   -421.8643036583   0.009462592393 0.01079185  0.00019422  0.0215610 0.0000
  6   -421.7754856401   0.088818018217 0.00488000  0.00010623  0.0147990 0.0000
  7   -421.8126514484  -0.037165808353 0.00299948  0.00005916  0.0066367 0.0000
  8   -421.8020963151   0.010555133357 0.00186405  0.00004555  0.0048489 0.0000
                      *** Initiating the SOSCF procedure ***
                           *** Shutting down DIIS ***
                      *** Re-Reading the Fockian *** 
                      *** Removing any level shift *** 
ITER      Energy       Delta-E        Grad      Rot      Max-DP    RMS-DP
  9   -421.89100328  -0.0889069629  0.000105  0.000105  0.000444  0.000014
 10   -421.89619564  -0.0051923583  0.000026  0.000041  0.000135  0.000004
 11   -421.89619575  -0.0000001115  0.000016  0.000019  0.000063  0.000001
 12   -421.89619578  -0.0000000344  0.000003  0.000007  0.000019  0.000000
                  ***Gradient check signals convergence***
              ***Rediagonalizing the Fockian in SOSCF/NRSCF***

               *****************************************************
               *                     SUCCESS                       *
               *           SCF CONVERGED AFTER  13 CYCLES          *
               *****************************************************


----------------
TOTAL SCF ENERGY
----------------

Total Energy       :         -421.89619578 Eh          -11480.37914 eV

Components:
Nuclear Repulsion  :          493.03314820 Eh           13416.11402 eV
Electronic Energy  :         -914.92934399 Eh          -24896.49316 eV

One Electron Energy:        -1553.19278000 Eh          -42264.52423 eV
Two Electron Energy:          638.26343602 Eh           17368.03107 eV

Virial components:
Potential Energy   :         -843.25036527 Eh          -22946.00899 eV
Kinetic Energy     :          421.35416948 Eh           11465.62985 eV
Virial Ratio       :            2.00128639


---------------
SCF CONVERGENCE
---------------

  Last Energy change         ...   -1.3406e-09  Tolerance :   1.0000e-08
  Last MAX-Density change    ...    4.5065e-06  Tolerance :   1.0000e-07
  Last RMS-Density change    ...    1.0604e-07  Tolerance :   5.0000e-09
  Last Orbital Gradient      ...    1.1215e-06  Tolerance :   1.0000e-05
  Last Orbital Rotation      ...    1.9643e-06  Tolerance :   1.0000e-05

             **** THE GBW FILE WAS UPDATED (dsgdb9nsd_063590.gbw) ****
             **** DENSITY FILE WAS UPDATED (dsgdb9nsd_063590.scfp.tmp) ****
             **** ENERGY FILE WAS UPDATED (dsgdb9nsd_063590.en.tmp) ****
----------------
ORBITAL ENERGIES
----------------

  NO   OCC          E(Eh)            E(eV) 
   0   2.0000     -20.566441      -559.6413 
   1   2.0000     -20.544868      -559.0543 
   2   2.0000     -11.284369      -307.0633 
   3   2.0000     -11.282154      -307.0030 
   4   2.0000     -11.280608      -306.9609 
   5   2.0000     -11.235614      -305.7366 
   6   2.0000     -11.233764      -305.6863 
   7   2.0000     -11.216396      -305.2137 
   8   2.0000     -11.216119      -305.2061 
   9   2.0000      -1.398159       -38.0458 
  10   2.0000      -1.353104       -36.8198 
  11   2.0000      -1.123770       -30.5793 
  12   2.0000      -1.061593       -28.8874 
  13   2.0000      -0.977039       -26.5866 
  14   2.0000      -0.933864       -25.4117 
  15   2.0000      -0.823595       -22.4112 
  16   2.0000      -0.796698       -21.6792 
  17   2.0000      -0.753220       -20.4962 
  18   2.0000      -0.712395       -19.3853 
  19   2.0000      -0.678657       -18.4672 
  20   2.0000      -0.650738       -17.7075 
  21   2.0000      -0.612176       -16.6581 
  22   2.0000      -0.597921       -16.2703 
  23   2.0000      -0.593723       -16.1560 
  24   2.0000      -0.564647       -15.3648 
  25   2.0000      -0.545644       -14.8477 
  26   2.0000      -0.540158       -14.6985 
  27   2.0000      -0.532572       -14.4920 
  28   2.0000      -0.513335       -13.9686 
  29   2.0000      -0.509576       -13.8663 
  30   2.0000      -0.502225       -13.6662 
  31   2.0000      -0.485981       -13.2242 
  32   2.0000      -0.460329       -12.5262 
  33   2.0000      -0.389941       -10.6108 
  34   2.0000      -0.361504        -9.8370 
  35   0.0000       0.127352         3.4654 
  36   0.0000       0.153892         4.1876 
  37   0.0000       0.161179         4.3859 
  38   0.0000       0.177471         4.8292 
  39   0.0000       0.194150         5.2831 
  40   0.0000       0.198572         5.4034 
  41   0.0000       0.203895         5.5483 
  42   0.0000       0.215000         5.8505 
  43   0.0000       0.215811         5.8725 
  44   0.0000       0.230968         6.2849 
  45   0.0000       0.236019         6.4224 
  46   0.0000       0.243643         6.6299 
  47   0.0000       0.248147         6.7524 
  48   0.0000       0.263740         7.1767 
  49   0.0000       0.274426         7.4675 
  50   0.0000       0.295165         8.0319 
  51   0.0000       0.305540         8.3142 
  52   0.0000       0.308505         8.3949 
  53   0.0000       0.324479         8.8295 
  54   0.0000       0.332679         9.0526 
  55   0.0000       0.346043         9.4163 
  56   0.0000       0.350879         9.5479 
  57   0.0000       0.366441         9.9714 
  58   0.0000       0.382017        10.3952 
  59   0.0000       0.396564        10.7911 
  60   0.0000       0.423182        11.5154 
  61   0.0000       0.432650        11.7730 
  62   0.0000       0.445838        12.1319 
  63   0.0000       0.474712        12.9176 
  64   0.0000       0.489785        13.3277 
  65   0.0000       0.517587        14.0842 
  66   0.0000       0.520894        14.1742 
  67   0.0000       0.529332        14.4039 
  68   0.0000       0.535670        14.5763 
  69   0.0000       0.538660        14.6577 
  70   0.0000       0.552082        15.0229 
  71   0.0000       0.559214        15.2170 
  72   0.0000       0.571710        15.5570 
  73   0.0000       0.577766        15.7218 
  74   0.0000       0.579193        15.7607 
  75   0.0000       0.585544        15.9335 
  76   0.0000       0.593074        16.1384 
  77   0.0000       0.597585        16.2611 
  78   0.0000       0.610932        16.6243 
  79   0.0000       0.616682        16.7808 
  80   0.0000       0.620181        16.8760 
  81   0.0000       0.630660        17.1611 
  82   0.0000       0.641673        17.4608 
  83   0.0000       0.649419        17.6716 
  84   0.0000       0.662663        18.0320 
  85   0.0000       0.676963        18.4211 
  86   0.0000       0.679703        18.4957 
  87   0.0000       0.689410        18.7598 
  88   0.0000       0.699578        19.0365 
  89   0.0000       0.731823        19.9139 
  90   0.0000       0.735547        20.0152 
  91   0.0000       0.743644        20.2356 
  92   0.0000       0.749645        20.3989 
  93   0.0000       0.773826        21.0569 
  94   0.0000       0.776477        21.1290 
  95   0.0000       0.809939        22.0396 
  96   0.0000       0.822201        22.3732 
  97   0.0000       0.842671        22.9302 
  98   0.0000       0.883186        24.0327 
  99   0.0000       0.893878        24.3236 
 100   0.0000       0.924220        25.1493 
 101   0.0000       0.927528        25.2393 
 102   0.0000       0.960620        26.1398 
 103   0.0000       0.996496        27.1160 
 104   0.0000       1.025544        27.9065 
 105   0.0000       1.036307        28.1994 
 106   0.0000       1.060749        28.8644 
 107   0.0000       1.077926        29.3319 
 108   0.0000       1.078480        29.3469 
 109   0.0000       1.098848        29.9012 
 110   0.0000       1.119757        30.4701 
 111   0.0000       1.132272        30.8107 
 112   0.0000       1.142983        31.1021 
 113   0.0000       1.156835        31.4791 
 114   0.0000       1.171949        31.8903 
 115   0.0000       1.187940        32.3255 
 116   0.0000       1.216256        33.0960 
 117   0.0000       1.220203        33.2034 
 118   0.0000       1.231434        33.5090 
 119   0.0000       1.266580        34.4654 
 120   0.0000       1.284012        34.9397 
 121   0.0000       1.288491        35.0616 
 122   0.0000       1.292866        35.1807 
 123   0.0000       1.314431        35.7675 
 124   0.0000       1.339541        36.4508 
 125   0.0000       1.358962        36.9792 
 126   0.0000       1.363280        37.0967 
 127   0.0000       1.392639        37.8956 
 128   0.0000       1.401262        38.1303 
 129   0.0000       1.416315        38.5399 
 130   0.0000       1.426200        38.8089 
 131   0.0000       1.451220        39.4897 
 132   0.0000       1.471292        40.0359 
 133   0.0000       1.487190        40.4685 
 134   0.0000       1.542472        41.9728 
 135   0.0000       1.552923        42.2572 
 136   0.0000       1.567531        42.6547 
 137   0.0000       1.585929        43.1553 
 138   0.0000       1.645193        44.7680 
 139   0.0000       1.673652        45.5424 
 140   0.0000       1.719634        46.7936 
 141   0.0000       1.754108        47.7317 
 142   0.0000       1.766020        48.0559 
 143   0.0000       1.777499        48.3682 
 144   0.0000       1.799050        48.9546 
 145   0.0000       1.830710        49.8162 
 146   0.0000       1.839068        50.0436 
 147   0.0000       1.853274        50.4302 
 148   0.0000       1.866158        50.7807 
 149   0.0000       1.869668        50.8763 
 150   0.0000       1.889601        51.4187 
 151   0.0000       1.904082        51.8127 
 152   0.0000       1.916562        52.1523 
 153   0.0000       1.925552        52.3969 
 154   0.0000       1.944614        52.9156 
 155   0.0000       1.967971        53.5512 
 156   0.0000       1.997937        54.3666 
 157   0.0000       2.007303        54.6215 
 158   0.0000       2.032444        55.3056 
 159   0.0000       2.062969        56.1363 
 160   0.0000       2.073730        56.4291 
 161   0.0000       2.077424        56.5296 
 162   0.0000       2.093305        56.9617 
 163   0.0000       2.121951        57.7412 
 164   0.0000       2.152561        58.5742 
 165   0.0000       2.164926        58.9106 
 166   0.0000       2.166034        58.9408 
 167   0.0000       2.175553        59.1998 
 168   0.0000       2.189674        59.5841 
 169   0.0000       2.224112        60.5212 
 170   0.0000       2.254240        61.3410 
 171   0.0000       2.255947        61.3874 
 172   0.0000       2.263942        61.6050 
 173   0.0000       2.280685        62.0606 
 174   0.0000       2.320034        63.1313 
 175   0.0000       2.328139        63.3519 
 176   0.0000       2.363614        64.3172 
 177   0.0000       2.373222        64.5787 
 178   0.0000       2.385533        64.9137 
 179   0.0000       2.425774        66.0087 
 180   0.0000       2.467700        67.1495 
 181   0.0000       2.477010        67.4029 
 182   0.0000       2.487032        67.6756 
 183   0.0000       2.524375        68.6917 
 184   0.0000       2.539447        69.1019 
 185   0.0000       2.554955        69.5239 
 186   0.0000       2.576002        70.0966 
 187   0.0000       2.608590        70.9834 
 188   0.0000       2.626568        71.4726 
 189   0.0000       2.641645        71.8828 
 190   0.0000       2.661325        72.4183 
 191   0.0000       2.668560        72.6152 
 192   0.0000       2.688173        73.1489 
 193   0.0000       2.694228        73.3137 
 194   0.0000       2.699234        73.4499 
 195   0.0000       2.722257        74.0764 
 196   0.0000       2.732631        74.3587 
 197   0.0000       2.752980        74.9124 
 198   0.0000       2.782515        75.7161 
 199   0.0000       2.796383        76.0935 
 200   0.0000       2.822332        76.7996 
 201   0.0000       2.832120        77.0659 
 202   0.0000       2.837840        77.2216 
 203   0.0000       2.840678        77.2988 
 204   0.0000       2.855130        77.6920 
 205   0.0000       2.877211        78.2929 
 206   0.0000       2.897554        78.8465 
 207   0.0000       2.906381        79.0867 
 208   0.0000       2.919841        79.4529 
 209   0.0000       2.927298        79.6558 
 210   0.0000       2.937500        79.9334 
 211   0.0000       2.948250        80.2260 
 212   0.0000       2.964818        80.6768 
 213   0.0000       2.996299        81.5334 
 214   0.0000       3.008494        81.8653 
 215   0.0000       3.037106        82.6439 
 216   0.0000       3.059131        83.2432 
 217   0.0000       3.064867        83.3993 
 218   0.0000       3.081303        83.8465 
 219   0.0000       3.088308        84.0371 
 220   0.0000       3.109850        84.6233 
 221   0.0000       3.132784        85.2474 
 222   0.0000       3.145813        85.6019 
 223   0.0000       3.162209        86.0481 
 224   0.0000       3.182889        86.6108 
 225   0.0000       3.231044        87.9212 
 226   0.0000       3.256184        88.6053 
 227   0.0000       3.276865        89.1680 
 228   0.0000       3.286110        89.4196 
 229   0.0000       3.317983        90.2869 
 230   0.0000       3.341856        90.9365 
 231   0.0000       3.365226        91.5725 
 232   0.0000       3.381015        92.0021 
 233   0.0000       3.390392        92.2573 
 234   0.0000       3.411494        92.8315 
 235   0.0000       3.432848        93.4125 
 236   0.0000       3.438960        93.5789 
 237   0.0000       3.453475        93.9738 
 238   0.0000       3.473665        94.5232 
 239   0.0000       3.490840        94.9906 
 240   0.0000       3.492811        95.0442 
 241   0.0000       3.510168        95.5165 
 242   0.0000       3.530799        96.0779 
 243   0.0000       3.542645        96.4003 
 244   0.0000       3.559248        96.8521 
 245   0.0000       3.576278        97.3155 
 246   0.0000       3.609025        98.2066 
 247   0.0000       3.612932        98.3129 
 248   0.0000       3.630226        98.7835 
 249   0.0000       3.641109        99.0796 
 250   0.0000       3.653923        99.4283 
 251   0.0000       3.661719        99.6404 
 252   0.0000       3.672734        99.9402 
 253   0.0000       3.688731       100.3755 
 254   0.0000       3.699717       100.6744 
 255   0.0000       3.725432       101.3741 
 256   0.0000       3.736473       101.6746 
 257   0.0000       3.766302       102.4863 
 258   0.0000       3.781120       102.8895 
 259   0.0000       3.803389       103.4955 
 260   0.0000       3.804915       103.5370 
 261   0.0000       3.836647       104.4005 
 262   0.0000       3.844276       104.6081 
 263   0.0000       3.860308       105.0443 
 264   0.0000       3.892869       105.9304 
 265   0.0000       3.903223       106.2121 
 266   0.0000       3.947963       107.4295 
 267   0.0000       3.966956       107.9463 
 268   0.0000       3.979705       108.2933 
 269   0.0000       3.993038       108.6561 
 270   0.0000       4.051494       110.2467 
 271   0.0000       4.070530       110.7647 
 272   0.0000       4.094143       111.4073 
 273   0.0000       4.098808       111.5342 
 274   0.0000       4.141045       112.6836 
 275   0.0000       4.170720       113.4911 
 276   0.0000       4.198330       114.2424 
 277   0.0000       4.217798       114.7721 
 278   0.0000       4.245188       115.5174 
 279   0.0000       4.276776       116.3770 
 280   0.0000       4.283978       116.5730 
 281   0.0000       4.309022       117.2544 
 282   0.0000       4.320195       117.5585 
 283   0.0000       4.347047       118.2892 
 284   0.0000       4.374845       119.0456 
 285   0.0000       4.397685       119.6671 
 286   0.0000       4.449245       121.0701 
 287   0.0000       4.468316       121.5891 
 288   0.0000       4.482672       121.9797 
 289   0.0000       4.501912       122.5033 
 290   0.0000       4.520259       123.0025 
 291   0.0000       4.539085       123.5148 
 292   0.0000       4.551350       123.8485 
 293   0.0000       4.590981       124.9269 
 294   0.0000       4.613756       125.5467 
 295   0.0000       4.662027       126.8602 
 296   0.0000       4.669087       127.0523 
 297   0.0000       4.740789       129.0034 
 298   0.0000       4.768719       129.7635 
 299   0.0000       4.803793       130.7178 
 300   0.0000       4.841446       131.7424 
 301   0.0000       4.850347       131.9847 
 302   0.0000       4.904748       133.4650 
 303   0.0000       4.926685       134.0619 
 304   0.0000       4.981114       135.5430 
 305   0.0000       5.028658       136.8367 
 306   0.0000       5.049131       137.3938 
 307   0.0000       5.077650       138.1699 
 308   0.0000       5.122027       139.3774 
 309   0.0000       5.166552       140.5890 
 310   0.0000       5.178789       140.9220 
 311   0.0000       5.263285       143.2213 
 312   0.0000       5.339362       145.2914 
 313   0.0000       5.359635       145.8431 
 314   0.0000       5.408605       147.1756 
 315   0.0000       5.443080       148.1137 
 316   0.0000       5.528025       150.4252 
 317   0.0000       5.565392       151.4420 
 318   0.0000       5.775379       157.1561 
 319   0.0000       5.870145       159.7348 
 320   0.0000       5.908115       160.7680 
 321   0.0000       5.958147       162.1294 
 322   0.0000       5.971652       162.4969 
 323   0.0000       6.208981       168.9550 
 324   0.0000       6.276355       170.7883 
 325   0.0000       6.308264       171.6566 
 326   0.0000       6.340084       172.5225 
 327   0.0000       6.361503       173.1053 
 328   0.0000       6.577382       178.9797 
 329   0.0000       6.691603       182.0878 
 330   0.0000       6.754493       183.7991 
 331   0.0000       6.811949       185.3625 
 332   0.0000       7.052134       191.8983 
 333   0.0000       7.239598       196.9995 
 334   0.0000       7.341883       199.7828 
 335   0.0000       7.354568       200.1280 
 336   0.0000       7.375848       200.7070 
 337   0.0000       7.439061       202.4271 
 338   0.0000       7.565625       205.8711 
 339   0.0000       7.732406       210.4095 
 340   0.0000       7.801668       212.2942 
 341   0.0000       7.880673       214.4440 
 342   0.0000      23.447140       638.0291 
 343   0.0000      23.509775       639.7335 
 344   0.0000      23.588535       641.8767 
 345   0.0000      23.598239       642.1407 
 346   0.0000      23.643813       643.3809 
 347   0.0000      23.957689       651.9219 
 348   0.0000      24.032713       653.9634 
 349   0.0000      45.608204      1241.0623 
 350   0.0000      45.885137      1248.5981 

                    ********************************
                    * MULLIKEN POPULATION ANALYSIS *
                    ********************************

-----------------------
MULLIKEN ATOMIC CHARGES
-----------------------
   0 C :   -0.349765
   1 C :    0.258783
   2 O :   -0.554388
   3 C :   -0.290475
   4 C :    0.234852
   5 C :   -0.203098
   6 C :   -0.165297
   7 C :    0.039927
   8 O :   -0.453534
   9 H :    0.101723
  10 H :    0.118301
  11 H :    0.104123
  12 H :    0.352825
  13 H :    0.113605
  14 H :    0.109017
  15 H :    0.100383
  16 H :    0.108153
  17 H :    0.092616
  18 H :    0.103499
  19 H :    0.102964
  20 H :    0.075785
Sum of atomic charges:   -0.0000000

--------------------------------
MULLIKEN REDUCED ORBITAL CHARGES
--------------------------------
  0 C s       :     3.240520  s :     3.240520
      pz      :     1.080437  p :     3.027500
      px      :     1.030509
      py      :     0.916554
      dz2     :     0.013515  d :     0.077017
      dxz     :     0.014023
      dyz     :     0.017824
      dx2y2   :     0.013128
      dxy     :     0.018527
      f0      :     0.000585  f :     0.004727
      f+1     :     0.000850
      f-1     :     0.000588
      f+2     :     0.000610
      f-2     :     0.000195
      f+3     :     0.000705
      f-3     :     0.001196
  1 C s       :     3.058177  s :     3.058177
      pz      :     0.948293  p :     2.462546
      px      :     0.674814
      py      :     0.839440
      dz2     :     0.026917  d :     0.203015
      dxz     :     0.046913
      dyz     :     0.028076
      dx2y2   :     0.062412
      dxy     :     0.038697
      f0      :     0.001654  f :     0.017478
      f+1     :     0.002518
      f-1     :     0.001662
      f+2     :     0.001723
      f-2     :     0.002880
      f+3     :     0.003982
      f-3     :     0.003058
  2 O s       :     3.791140  s :     3.791140
      pz      :     1.783191  p :     4.726967
      px      :     1.547192
      py      :     1.396584
      dz2     :     0.003427  d :     0.034436
      dxz     :     0.005752
      dyz     :     0.007853
      dx2y2   :     0.010075
      dxy     :     0.007328
      f0      :     0.000312  f :     0.001846
      f+1     :     0.000189
      f-1     :     0.000129
      f+2     :     0.000439
      f-2     :     0.000168
      f+3     :     0.000172
      f-3     :     0.000435
  3 C s       :     3.228062  s :     3.228062
      pz      :     0.933440  p :     2.983389
      px      :     0.978260
      py      :     1.071689
      dz2     :     0.018299  d :     0.071089
      dxz     :     0.014310
      dyz     :     0.013534
      dx2y2   :     0.008253
      dxy     :     0.016693
      f0      :     0.001563  f :     0.007935
      f+1     :     0.001775
      f-1     :     0.000801
      f+2     :     0.001369
      f-2     :     0.000670
      f+3     :     0.000707
      f-3     :     0.001050
  4 C s       :     3.094406  s :     3.094406
      pz      :     0.844598  p :     2.471979
      px      :     0.964131
      py      :     0.663250
      dz2     :     0.034899  d :     0.181327
      dxz     :     0.032755
      dyz     :     0.044164
      dx2y2   :     0.026700
      dxy     :     0.042809
      f0      :     0.003067  f :     0.017436
      f+1     :     0.002613
      f-1     :     0.003029
      f+2     :     0.002260
      f-2     :     0.001974
      f+3     :     0.002111
      f-3     :     0.002381
  5 C s       :     3.169431  s :     3.169431
      pz      :     0.928353  p :     2.924767
      px      :     1.007610
      py      :     0.988804
      dz2     :     0.024168  d :     0.102164
      dxz     :     0.018292
      dyz     :     0.024133
      dx2y2   :     0.015066
      dxy     :     0.020506
      f0      :     0.000964  f :     0.006735
      f+1     :     0.000673
      f-1     :     0.001300
      f+2     :     0.001180
      f-2     :     0.001300
      f+3     :     0.000843
      f-3     :     0.000474
  6 C s       :     3.139950  s :     3.139950
      pz      :     0.983077  p :     2.924277
      px      :     0.989694
      py      :     0.951506
      dz2     :     0.025157  d :     0.094421
      dxz     :     0.008194
      dyz     :     0.018110
      dx2y2   :     0.017756
      dxy     :     0.025205
      f0      :     0.000868  f :     0.006649
      f+1     :     0.000557
      f-1     :     0.001690
      f+2     :     0.000568
      f-2     :     0.001020
      f+3     :     0.000680
      f-3     :     0.001266
  7 C s       :     3.164529  s :     3.164529
      pz      :     0.652246  p :     2.645427
      px      :     0.974692
      py      :     1.018490
      dz2     :     0.033561  d :     0.138678
      dxz     :     0.038847
      dyz     :     0.028927
      dx2y2   :     0.022685
      dxy     :     0.014658
      f0      :     0.002913  f :     0.011440
      f+1     :     0.003355
      f-1     :     0.002224
      f+2     :     0.000355
      f-2     :     0.000507
      f+3     :     0.000728
      f-3     :     0.001358
  8 O s       :     3.795525  s :     3.795525
      pz      :     1.342765  p :     4.615195
      px      :     1.826945
      py      :     1.445485
      dz2     :     0.015697  d :     0.040827
      dxz     :     0.004512
      dyz     :     0.007204
      dx2y2   :     0.008193
      dxy     :     0.005220
      f0      :     0.000599  f :     0.001987
      f+1     :     0.000240
      f-1     :     0.000276
      f+2     :     0.000170
      f-2     :     0.000121
      f+3     :     0.000308
      f-3     :     0.000273
  9 H s       :     0.876583  s :     0.876583
      pz      :     0.004070  p :     0.021694
      px      :     0.010462
      py      :     0.007162
 10 H s       :     0.859835  s :     0.859835
      pz      :     0.012248  p :     0.021864
      px      :     0.004981
      py      :     0.004635
 11 H s       :     0.874150  s :     0.874150
      pz      :     0.008438  p :     0.021727
      px      :     0.009189
      py      :     0.004100
 12 H s       :     0.600172  s :     0.600172
      pz      :     0.016525  p :     0.047002
      px      :     0.010977
      py      :     0.019501
 13 H s       :     0.862871  s :     0.862871
      pz      :     0.007814  p :     0.023524
      px      :     0.003632
      py      :     0.012078
 14 H s       :     0.867812  s :     0.867812
      pz      :     0.004611  p :     0.023171
      px      :     0.010427
      py      :     0.008133
 15 H s       :     0.877270  s :     0.877270
      pz      :     0.004114  p :     0.022347
      px      :     0.013355
      py      :     0.004878
 16 H s       :     0.869534  s :     0.869534
      pz      :     0.004610  p :     0.022313
      px      :     0.006281
      py      :     0.011421
 17 H s       :     0.885063  s :     0.885063
      pz      :     0.003586  p :     0.022321
      px      :     0.012164
      py      :     0.006571
 18 H s       :     0.874269  s :     0.874269
      pz      :     0.013494  p :     0.022232
      px      :     0.003687
      py      :     0.005051
 19 H s       :     0.875452  s :     0.875452
      pz      :     0.003385  p :     0.021584
      px      :     0.003524
      py      :     0.014676
 20 H s       :     0.903226  s :     0.903226
      pz      :     0.003311  p :     0.020989
      px      :     0.012956
      py      :     0.004723


                     *******************************
                     * LOEWDIN POPULATION ANALYSIS *
                     *******************************

----------------------
LOEWDIN ATOMIC CHARGES
----------------------
   0 C :   -0.237041
   1 C :   -0.330686
   2 O :   -0.011720
   3 C :   -0.152904
   4 C :   -0.263281
   5 C :   -0.189447
   6 C :   -0.230144
   7 C :   -0.260718
   8 O :    0.132348
   9 H :    0.116924
  10 H :    0.121991
  11 H :    0.117234
  12 H :    0.186807
  13 H :    0.132399
  14 H :    0.124378
  15 H :    0.129011
  16 H :    0.132189
  17 H :    0.128338
  18 H :    0.124424
  19 H :    0.117078
  20 H :    0.112820

-------------------------------
LOEWDIN REDUCED ORBITAL CHARGES
-------------------------------
  0 C s       :     2.818854  s :     2.818854
      pz      :     1.060285  p :     3.119613
      px      :     1.042002
      py      :     1.017325
      dz2     :     0.041078  d :     0.273441
      dxz     :     0.048181
      dyz     :     0.065859
      dx2y2   :     0.050092
      dxy     :     0.068232
      f0      :     0.003192  f :     0.025133
      f+1     :     0.002298
      f-1     :     0.003596
      f+2     :     0.004795
      f-2     :     0.002126
      f+3     :     0.003765
      f-3     :     0.005361
  1 C s       :     2.682704  s :     2.682704
      pz      :     0.967722  p :     2.774962
      px      :     0.849734
      py      :     0.957506
      dz2     :     0.110202  d :     0.766168
      dxz     :     0.161620
      dyz     :     0.102635
      dx2y2   :     0.207570
      dxy     :     0.184142
      f0      :     0.009498  f :     0.106852
      f+1     :     0.013447
      f-1     :     0.008744
      f+2     :     0.011711
      f-2     :     0.019005
      f+3     :     0.024298
      f-3     :     0.020149
  2 O s       :     3.342903  s :     3.342903
      pz      :     1.695009  p :     4.595758
      px      :     1.542597
      py      :     1.358152
      dz2     :     0.006328  d :     0.068600
      dxz     :     0.012044
      dyz     :     0.013823
      dx2y2   :     0.022026
      dxy     :     0.014378
      f0      :     0.000457  f :     0.004459
      f+1     :     0.000490
      f-1     :     0.000206
      f+2     :     0.001066
      f-2     :     0.000578
      f+3     :     0.000805
      f-3     :     0.000857
  3 C s       :     2.770794  s :     2.770794
      pz      :     0.986186  p :     3.009679
      px      :     0.998617
      py      :     1.024875
      dz2     :     0.066693  d :     0.332058
      dxz     :     0.084756
      dyz     :     0.068872
      dx2y2   :     0.046508
      dxy     :     0.065227
      f0      :     0.007306  f :     0.040373
      f+1     :     0.011603
      f-1     :     0.004280
      f+2     :     0.006729
      f-2     :     0.002584
      f+3     :     0.004191
      f-3     :     0.003680
  4 C s       :     2.678578  s :     2.678578
      pz      :     0.953179  p :     2.749096
      px      :     0.983682
      py      :     0.812235
      dz2     :     0.166658  d :     0.730494
      dxz     :     0.142408
      dyz     :     0.159401
      dx2y2   :     0.120866
      dxy     :     0.141162
      f0      :     0.017003  f :     0.105113
      f+1     :     0.013394
      f-1     :     0.021545
      f+2     :     0.013702
      f-2     :     0.009782
      f+3     :     0.014364
      f-3     :     0.015323
  5 C s       :     2.768522  s :     2.768522
      pz      :     0.984946  p :     2.999432
      px      :     1.010118
      py      :     1.004368
      dz2     :     0.085497  d :     0.381725
      dxz     :     0.064285
      dyz     :     0.091395
      dx2y2   :     0.061972
      dxy     :     0.078575
      f0      :     0.007462  f :     0.039768
      f+1     :     0.004351
      f-1     :     0.006525
      f+2     :     0.006560
      f-2     :     0.007559
      f+3     :     0.004499
      f-3     :     0.002811
  6 C s       :     2.779036  s :     2.779036
      pz      :     0.997151  p :     3.024923
      px      :     1.019488
      py      :     1.008284
      dz2     :     0.105311  d :     0.386529
      dxz     :     0.034446
      dyz     :     0.076537
      dx2y2   :     0.070301
      dxy     :     0.099934
      f0      :     0.004304  f :     0.039656
      f+1     :     0.004610
      f-1     :     0.007338
      f+2     :     0.004966
      f-2     :     0.007006
      f+3     :     0.004978
      f-3     :     0.006454
  7 C s       :     2.795499  s :     2.795499
      pz      :     0.781642  p :     2.854550
      px      :     1.037773
      py      :     1.035135
      dz2     :     0.146863  d :     0.537090
      dxz     :     0.131253
      dyz     :     0.105595
      dx2y2   :     0.095279
      dxy     :     0.058101
      f0      :     0.019059  f :     0.073579
      f+1     :     0.020877
      f-1     :     0.016223
      f+2     :     0.003788
      f-2     :     0.004625
      f+3     :     0.004266
      f-3     :     0.004741
  8 O s       :     3.280287  s :     3.280287
      pz      :     1.351964  p :     4.480866
      px      :     1.685300
      py      :     1.443602
      dz2     :     0.033297  d :     0.100106
      dxz     :     0.014891
      dyz     :     0.022792
      dx2y2   :     0.015756
      dxy     :     0.013370
      f0      :     0.001433  f :     0.006392
      f+1     :     0.000999
      f-1     :     0.001701
      f+2     :     0.000448
      f-2     :     0.000345
      f+3     :     0.000775
      f-3     :     0.000692
  9 H s       :     0.823981  s :     0.823981
      pz      :     0.013512  p :     0.059096
      px      :     0.028134
      py      :     0.017450
 10 H s       :     0.818296  s :     0.818296
      pz      :     0.031645  p :     0.059713
      px      :     0.014774
      py      :     0.013295
 11 H s       :     0.823460  s :     0.823460
      pz      :     0.023152  p :     0.059305
      px      :     0.024007
      py      :     0.012146
 12 H s       :     0.651187  s :     0.651187
      pz      :     0.056233  p :     0.162006
      px      :     0.034822
      py      :     0.070951
 13 H s       :     0.805162  s :     0.805162
      pz      :     0.019532  p :     0.062439
      px      :     0.012037
      py      :     0.030870
 14 H s       :     0.813800  s :     0.813800
      pz      :     0.013417  p :     0.061822
      px      :     0.025638
      py      :     0.022767
 15 H s       :     0.812493  s :     0.812493
      pz      :     0.012728  p :     0.058496
      px      :     0.032142
      py      :     0.013626
 16 H s       :     0.809446  s :     0.809446
      pz      :     0.013690  p :     0.058365
      px      :     0.018688
      py      :     0.025987
 17 H s       :     0.813226  s :     0.813226
      pz      :     0.011754  p :     0.058436
      px      :     0.028476
      py      :     0.018205
 18 H s       :     0.816984  s :     0.816984
      pz      :     0.031117  p :     0.058591
      px      :     0.012391
      py      :     0.015083
 19 H s       :     0.825755  s :     0.825755
      pz      :     0.009770  p :     0.057167
      px      :     0.012001
      py      :     0.035396
 20 H s       :     0.830776  s :     0.830776
      pz      :     0.009865  p :     0.056404
      px      :     0.031062
      py      :     0.015477


                      *****************************
                      * MAYER POPULATION ANALYSIS *
                      *****************************

  NA   - Mulliken gross atomic population
  ZA   - Total nuclear charge
  QA   - Mulliken gross atomic charge
  VA   - Mayer's total valence
  BVA  - Mayer's bonded valence
  FA   - Mayer's free valence

  ATOM       NA         ZA         QA         VA         BVA        FA
  0 C      6.3498     6.0000    -0.3498     3.9247     3.9247    -0.0000
  1 C      5.7412     6.0000     0.2588     3.9144     3.9144     0.0000
  2 O      8.5544     8.0000    -0.5544     1.8374     1.8374     0.0000
  3 C      6.2905     6.0000    -0.2905     3.8865     3.8865    -0.0000
  4 C      5.7651     6.0000     0.2349     3.7189     3.7189     0.0000
  5 C      6.2031     6.0000    -0.2031     3.8614     3.8614    -0.0000
  6 C      6.1653     6.0000    -0.1653     3.9497     3.9497    -0.0000
  7 C      5.9601     6.0000     0.0399     3.9158     3.9158    -0.0000
  8 O      8.4535     8.0000    -0.4535     1.8149     1.8149     0.0000
  9 H      0.8983     1.0000     0.1017     0.9625     0.9625    -0.0000
 10 H      0.8817     1.0000     0.1183     0.9784     0.9784     0.0000
 11 H      0.8959     1.0000     0.1041     0.9809     0.9809    -0.0000
 12 H      0.6472     1.0000     0.3528     0.9026     0.9026     0.0000
 13 H      0.8864     1.0000     0.1136     0.9950     0.9950     0.0000
 14 H      0.8910     1.0000     0.1090     0.9715     0.9715     0.0000
 15 H      0.8996     1.0000     0.1004     0.9745     0.9745     0.0000
 16 H      0.8918     1.0000     0.1082     0.9667     0.9667    -0.0000
 17 H      0.9074     1.0000     0.0926     0.9791     0.9791    -0.0000
 18 H      0.8965     1.0000     0.1035     0.9766     0.9766    -0.0000
 19 H      0.8970     1.0000     0.1030     0.9656     0.9656    -0.0000
 20 H      0.9242     1.0000     0.0758     0.9735     0.9735     0.0000

  Mayer bond orders larger than 0.1
B(  0-C ,  1-C ) :   0.9336 B(  0-C ,  9-H ) :   0.9907 B(  0-C , 10-H ) :   0.9853 
B(  0-C , 11-H ) :   0.9872 B(  1-C ,  2-O ) :   1.0182 B(  1-C ,  3-C ) :   0.9966 
B(  1-C ,  4-C ) :   0.9455 B(  2-O , 12-H ) :   0.8556 B(  3-C ,  4-C ) :   0.9610 
B(  3-C , 13-H ) :   0.9557 B(  3-C , 14-H ) :   0.9668 B(  4-C ,  5-C ) :   0.9291 
B(  4-C ,  8-O ) :   0.8678 B(  5-C ,  6-C ) :   0.9930 B(  5-C , 15-H ) :   0.9787 
B(  5-C , 16-H ) :   0.9935 B(  6-C ,  7-C ) :   1.0100 B(  6-C , 17-H ) :   0.9786 
B(  6-C , 18-H ) :   0.9860 B(  7-C ,  8-O ) :   0.9211 B(  7-C , 19-H ) :   0.9791 
B(  7-C , 20-H ) :   0.9850 

-------
TIMINGS
-------

Total SCF time: 0 days 0 hours 3 min 5 sec 

Total time                  ....     185.248 sec
Sum of individual times     ....     190.909 sec  (103.1%)

Fock matrix formation       ....     183.351 sec  ( 99.0%)
Diagonalization             ....       0.842 sec  (  0.5%)
Density matrix formation    ....       0.059 sec  (  0.0%)
Population analysis         ....       0.200 sec  (  0.1%)
Initial guess               ....       3.946 sec  (  2.1%)
Orbital Transformation      ....       0.000 sec  (  0.0%)
Orbital Orthonormalization  ....       0.000 sec  (  0.0%)
DIIS solution               ....       0.239 sec  (  0.1%)
SOSCF solution              ....       0.392 sec  (  0.2%)

   <<< Auxbasis replaced with dsgdb9nsd_063590.AUXC.tmp (Dim=864) >>> 


------------------------------------------------------------------------------
                              ORCA MP2 CALCULATION
------------------------------------------------------------------------------

Freezing NCore=18 chemical core electrons

   <<< Use J-auxbasis for calculation of Separable RI-J derivative contributions dsgdb9nsd_063590.AUXJ.tmp (Dim=895) >>> 


---------------------
RI-MP2 ENERGY+DENSITY
---------------------
Dimension of the basis                    ...  351
Memory devoted to MP2                     ... 2000 MB   
Data format for buffers                   ... DOUBLE
Compression type for matrix containers    ... UNCOMPRESSED
Overall scaling of the MP2 energy         ...   1.000e+00 Eh
Calculating two index integrals           ... done (    0.020 sec)
Cholesky decomposition of V**-1           ... done (    0.139 sec)

-----------------
RI-TRANSFORMATION (AUX index driven)
-----------------

Dimension of the orbital-basis         ... 351
Dimension of the aux-basis             ... 864
Transformation of internal MOs         ...    0-  34
Transformation of internal/external MOs...    0-  34 to   35- 350
Number Format for Storage              ... Double (8 Byte)
Integral mode                          ... Direct

First Phase: integral generation and transformation of MO indices
  Aux angular momentum 0               ... done (    1.113 sec)
  Aux angular momentum 1               ... done (    1.521 sec)
  Aux angular momentum 2               ... done (    1.577 sec)
  Aux angular momentum 3               ... done (    1.129 sec)
  Aux angular momentum 4               ... done (    0.507 sec)
Closing buffer VIJ ( 0.00 GB; CompressionRatio= 1.94)
Closing buffer VIA ( 0.07 GB; CompressionRatio= 1.00)
  Phase 1 completed in     5.957 sec
Second Phase: sorting and transformation of aux index

IJ-Transformation
Memory available                       ... 1985 MB 
Max. # MO pairs treated in a batch     ... 35    
# of internal orbitals                 ... 35
# batches for internal orbitals        ... 1
Closing buffer IJV ( 0.00 GB; CompressionRatio= 1.00)
(ij|v) transformation done in     0.250 sec

IA-Transformation
Memory available                       ... 1985 MB 
Max. # MO pairs treated in a batch     ... 35    
# of internal orbitals                 ... 35
# batches for internal orbitals        ... 1
Closing buffer IAV ( 0.07 GB; CompressionRatio= 1.00)
(ia|v) transformation done in     1.821 sec

  Phase 2 completed in     2.095 sec
RI-Integral transformation completed in     8.052 sec
Opening buffers                              ... done
Frozen core precalculation                   ... done

Starting loop over batches of integrals:

Operator 0  - window                       ... (  9- 34)x( 35-350)
Operator 0  - Memory available             ...  2000 MB
Operator 0  - Memory needed per MO         ...   4.2 MB
Operator 0  - Number of orbitals per batch ... 26
Operator 0  - Number of batches            ... 1

OPERATOR  0   PASS   0:  MOs     9 ...   34
  Reading integrals       ... ok
  Internal MO  11
  Internal MO  14
  Internal MO  17
  Internal MO  20
  Internal MO  23
  Internal MO  26
  Internal MO  29
  Internal MO  32
Time spent in pair loops =    50.295 sec
Deleting buffer (Ka|jb)[aa] ...done

-----------------------------------------------
 RI-MP2 CORRELATION ENERGY:     -1.619604117 Eh
-----------------------------------------------


---------------------
MP2 DENSITY FORMATION
---------------------

Completing the external part of the density      ... done
Storing the unrelaxed density                    ... done

Calculating G(D)                                 ... done
Completing the Lagrangian                        ... done
Solving the Z-vector equations                   ... 

------------------------------------------------------------------------------
                           ORCA CP-SCF CALCULATION
------------------------------------------------------------------------------

Input orbitals are from        ... dsgdb9nsd_063590.gbw
Input Perturbation             ... dsgdb9nsd_063590.pin.tmp
Wavefunction output            ... dsgdb9nsd_063590.pout.tmp
Perturbation mode              ... Real perturbation
Solver                         ... POPLE
Max. number of iterations      ... 128
Convergence tolerance          ... 1.000e-08
Integral handling              ... Direct
Number of perturbations        ... 1
Number of operators            ... 1
Orbital ranges used for CP-SCF:
 Operator 0:  Orbitals   0... 34  to  35...350
Variables per vector in CP-SCF ... 11060
Number of vectors sought       ... 1
     CP-SCF ITERATION   0: 
     CP-SCF ITERATION   1:      0.000824012
     CP-SCF ITERATION   2:      0.000115181
     CP-SCF ITERATION   3:      0.000007631
     CP-SCF ITERATION   4:      0.000000585
     CP-SCF ITERATION   5:      0.000000066
     CP-SCF ITERATION   6:      0.000000005
done
Finalizing the relaxed density                   ... done
Transforming P to the AO basis                   ... done
Storing the relaxed density                      ... done

                *********************************************
                * UNRELAXED MP2 DENSITY POPULATION ANALYSIS *
                *********************************************

------------------------------------------------------------------------------
                           ORCA POPULATION ANALYSIS
------------------------------------------------------------------------------
Input electron density              ... dsgdb9nsd_063590.pmp2ur
BaseName (.gbw .S,...)              ... dsgdb9nsd_063590

                    ********************************
                    * MULLIKEN POPULATION ANALYSIS *
                    ********************************

-----------------------
MULLIKEN ATOMIC CHARGES
-----------------------
   0 C :   -0.358721
   1 C :    0.244920
   2 O :   -0.539980
   3 C :   -0.295926
   4 C :    0.224327
   5 C :   -0.210312
   6 C :   -0.173650
   7 C :    0.024535
   8 O :   -0.433479
   9 H :    0.105000
  10 H :    0.121576
  11 H :    0.107347
  12 H :    0.349314
  13 H :    0.117340
  14 H :    0.112450
  15 H :    0.104194
  16 H :    0.112046
  17 H :    0.096436
  18 H :    0.107139
  19 H :    0.106442
  20 H :    0.079000
Sum of atomic charges:   -0.0000000

--------------------------------
MULLIKEN REDUCED ORBITAL CHARGES
--------------------------------
  0 C s       :     3.238041  s :     3.238041
      pz      :     1.074726  p :     3.009747
      px      :     1.024474
      py      :     0.910547
      dz2     :     0.018551  d :     0.102507
      dxz     :     0.019413
      dyz     :     0.023636
      dx2y2   :     0.017437
      dxy     :     0.023469
      f0      :     0.001138  f :     0.008427
      f+1     :     0.001347
      f-1     :     0.001090
      f+2     :     0.001174
      f-2     :     0.000746
      f+3     :     0.001258
      f-3     :     0.001675
  1 C s       :     3.060313  s :     3.060313
      pz      :     0.942013  p :     2.452026
      px      :     0.675245
      py      :     0.834769
      dz2     :     0.031216  d :     0.221315
      dxz     :     0.049603
      dyz     :     0.032724
      dx2y2   :     0.065788
      dxy     :     0.041984
      f0      :     0.002161  f :     0.021426
      f+1     :     0.003017
      f-1     :     0.002148
      f+2     :     0.002369
      f-2     :     0.003403
      f+3     :     0.004728
      f-3     :     0.003601
  2 O s       :     3.785538  s :     3.785538
      pz      :     1.768622  p :     4.687438
      px      :     1.532948
      py      :     1.385868
      dz2     :     0.009218  d :     0.062447
      dxz     :     0.011362
      dyz     :     0.013464
      dx2y2   :     0.015537
      dxy     :     0.012866
      f0      :     0.000688  f :     0.004556
      f+1     :     0.000574
      f-1     :     0.000515
      f+2     :     0.000821
      f-2     :     0.000563
      f+3     :     0.000575
      f-3     :     0.000820
  3 C s       :     3.224677  s :     3.224677
      pz      :     0.927750  p :     2.964175
      px      :     0.971314
      py      :     1.065111
      dz2     :     0.021636  d :     0.095385
      dxz     :     0.019585
      dyz     :     0.019213
      dx2y2   :     0.013554
      dxy     :     0.021397
      f0      :     0.002040  f :     0.011689
      f+1     :     0.002286
      f-1     :     0.001399
      f+2     :     0.001867
      f-2     :     0.001241
      f+3     :     0.001303
      f-3     :     0.001554
  4 C s       :     3.093524  s :     3.093524
      pz      :     0.838051  p :     2.459986
      px      :     0.956207
      py      :     0.665727
      dz2     :     0.038938  d :     0.200768
      dxz     :     0.036544
      dyz     :     0.047842
      dx2y2   :     0.030809
      dxy     :     0.046635
      f0      :     0.003680  f :     0.021396
      f+1     :     0.003184
      f-1     :     0.003691
      f+2     :     0.002864
      f-2     :     0.002521
      f+3     :     0.002613
      f-3     :     0.002844
  5 C s       :     3.166944  s :     3.166944
      pz      :     0.921823  p :     2.905698
      px      :     1.001908
      py      :     0.981968
      dz2     :     0.029183  d :     0.127058
      dxz     :     0.023227
      dyz     :     0.027996
      dx2y2   :     0.020654
      dxy     :     0.025998
      f0      :     0.001551  f :     0.010612
      f+1     :     0.001202
      f-1     :     0.001828
      f+2     :     0.001727
      f-2     :     0.001853
      f+3     :     0.001403
      f-3     :     0.001047
  6 C s       :     3.137310  s :     3.137310
      pz      :     0.977341  p :     2.906792
      px      :     0.983828
      py      :     0.945623
      dz2     :     0.030243  d :     0.119036
      dxz     :     0.014082
      dyz     :     0.022315
      dx2y2   :     0.023057
      dxy     :     0.029340
      f0      :     0.001452  f :     0.010511
      f+1     :     0.001132
      f-1     :     0.002199
      f+2     :     0.001088
      f-2     :     0.001601
      f+3     :     0.001284
      f-3     :     0.001754
  7 C s       :     3.162637  s :     3.162637
      pz      :     0.656109  p :     2.638548
      px      :     0.969165
      py      :     1.013274
      dz2     :     0.035806  d :     0.159244
      dxz     :     0.043178
      dyz     :     0.033537
      dx2y2   :     0.027760
      dxy     :     0.018963
      f0      :     0.003242  f :     0.015037
      f+1     :     0.003870
      f-1     :     0.002758
      f+2     :     0.000929
      f-2     :     0.001051
      f+3     :     0.001339
      f-3     :     0.001848
  8 O s       :     3.789492  s :     3.789492
      pz      :     1.328821  p :     4.568965
      px      :     1.809384
      py      :     1.430760
      dz2     :     0.021171  d :     0.070217
      dxz     :     0.010704
      dyz     :     0.013105
      dx2y2   :     0.014017
      dxy     :     0.011220
      f0      :     0.001002  f :     0.004805
      f+1     :     0.000648
      f-1     :     0.000697
      f+2     :     0.000566
      f-2     :     0.000515
      f+3     :     0.000705
      f-3     :     0.000672
  9 H s       :     0.870127  s :     0.870127
      pz      :     0.005201  p :     0.024873
      px      :     0.011458
      py      :     0.008215
 10 H s       :     0.853510  s :     0.853510
      pz      :     0.013134  p :     0.024914
      px      :     0.006045
      py      :     0.005736
 11 H s       :     0.867825  s :     0.867825
      pz      :     0.009446  p :     0.024828
      px      :     0.010162
      py      :     0.005220
 12 H s       :     0.602024  s :     0.602024
      pz      :     0.017248  p :     0.048662
      px      :     0.011899
      py      :     0.019515
 13 H s       :     0.856205  s :     0.856205
      pz      :     0.008783  p :     0.026454
      px      :     0.004716
      py      :     0.012956
 14 H s       :     0.861354  s :     0.861354
      pz      :     0.005694  p :     0.026197
      px      :     0.011356
      py      :     0.009147
 15 H s       :     0.870358  s :     0.870358
      pz      :     0.005242  p :     0.025448
      px      :     0.014245
      py      :     0.005961
 16 H s       :     0.862507  s :     0.862507
      pz      :     0.005737  p :     0.025446
      px      :     0.007357
      py      :     0.012353
 17 H s       :     0.878141  s :     0.878141
      pz      :     0.004708  p :     0.025423
      px      :     0.013088
      py      :     0.007627
 18 H s       :     0.867533  s :     0.867533
      pz      :     0.014385  p :     0.025328
      px      :     0.004803
      py      :     0.006140
 19 H s       :     0.868877  s :     0.868877
      pz      :     0.004537  p :     0.024681
      px      :     0.004638
      py      :     0.015506
 20 H s       :     0.896800  s :     0.896800
      pz      :     0.004500  p :     0.024199
      px      :     0.013849
      py      :     0.005850


                     *******************************
                     * LOEWDIN POPULATION ANALYSIS *
                     *******************************

----------------------
LOEWDIN ATOMIC CHARGES
----------------------
   0 C :   -0.243924
   1 C :   -0.334671
   2 O :   -0.002809
   3 C :   -0.159267
   4 C :   -0.267982
   5 C :   -0.194139
   6 C :   -0.234613
   7 C :   -0.269045
   8 O :    0.145827
   9 H :    0.118706
  10 H :    0.123846
  11 H :    0.119028
  12 H :    0.184450
  13 H :    0.134334
  14 H :    0.126296
  15 H :    0.130798
  16 H :    0.133905
  17 H :    0.130072
  18 H :    0.126201
  19 H :    0.118810
  20 H :    0.114176

-------------------------------
LOEWDIN REDUCED ORBITAL CHARGES
-------------------------------
  0 C s       :     2.817173  s :     2.817173
      pz      :     1.052799  p :     3.095300
      px      :     1.034442
      py      :     1.008058
      dz2     :     0.046954  d :     0.300815
      dxz     :     0.053837
      dyz     :     0.070754
      dx2y2   :     0.055935
      dxy     :     0.073335
      f0      :     0.003902  f :     0.030637
      f+1     :     0.003077
      f-1     :     0.004419
      f+2     :     0.005522
      f-2     :     0.002832
      f+3     :     0.004564
      f-3     :     0.006320
  1 C s       :     2.682508  s :     2.682508
      pz      :     0.959886  p :     2.755660
      px      :     0.846029
      py      :     0.949745
      dz2     :     0.113903  d :     0.782882
      dxz     :     0.164893
      dyz     :     0.107223
      dx2y2   :     0.210052
      dxy     :     0.186811
      f0      :     0.010376  f :     0.113621
      f+1     :     0.014333
      f-1     :     0.009533
      f+2     :     0.012689
      f-2     :     0.019917
      f+3     :     0.025190
      f-3     :     0.021584
  2 O s       :     3.339751  s :     3.339751
      pz      :     1.681091  p :     4.557111
      px      :     1.528390
      py      :     1.347630
      dz2     :     0.012288  d :     0.098464
      dxz     :     0.017886
      dyz     :     0.019924
      dx2y2   :     0.027873
      dxy     :     0.020493
      f0      :     0.000878  f :     0.007482
      f+1     :     0.000901
      f-1     :     0.000609
      f+2     :     0.001507
      f-2     :     0.001007
      f+3     :     0.001233
      f-3     :     0.001347
  3 C s       :     2.769652  s :     2.769652
      pz      :     0.977068  p :     2.983244
      px      :     0.989683
      py      :     1.016493
      dz2     :     0.073292  d :     0.360136
      dxz     :     0.089045
      dyz     :     0.074296
      dx2y2   :     0.052629
      dxy     :     0.070873
      f0      :     0.008418  f :     0.046235
      f+1     :     0.012300
      f-1     :     0.005095
      f+2     :     0.007420
      f-2     :     0.003374
      f+3     :     0.004987
      f-3     :     0.004641
  4 C s       :     2.678330  s :     2.678330
      pz      :     0.944325  p :     2.729279
      px      :     0.975062
      py      :     0.809892
      dz2     :     0.170087  d :     0.748589
      dxz     :     0.146823
      dyz     :     0.162132
      dx2y2   :     0.124866
      dxy     :     0.144682
      f0      :     0.018089  f :     0.111784
      f+1     :     0.014494
      f-1     :     0.022394
      f+2     :     0.014609
      f-2     :     0.011067
      f+3     :     0.015127
      f-3     :     0.016003
  5 C s       :     2.766991  s :     2.766991
      pz      :     0.975210  p :     2.973139
      px      :     1.002291
      py      :     0.995639
      dz2     :     0.090176  d :     0.408277
      dxz     :     0.069530
      dyz     :     0.097224
      dx2y2   :     0.067531
      dxy     :     0.083816
      f0      :     0.008214  f :     0.045731
      f+1     :     0.005158
      f-1     :     0.007532
      f+2     :     0.007474
      f-2     :     0.008447
      f+3     :     0.005301
      f-3     :     0.003606
  6 C s       :     2.777416  s :     2.777416
      pz      :     0.988937  p :     2.999254
      px      :     1.011116
      py      :     0.999201
      dz2     :     0.109973  d :     0.412418
      dxz     :     0.040208
      dyz     :     0.082384
      dx2y2   :     0.075112
      dxy     :     0.104740
      f0      :     0.005164  f :     0.045526
      f+1     :     0.005355
      f-1     :     0.008324
      f+2     :     0.005761
      f-2     :     0.007810
      f+3     :     0.005732
      f-3     :     0.007380
  7 C s       :     2.794460  s :     2.794460
      pz      :     0.781166  p :     2.838654
      px      :     1.029919
      py      :     1.027569
      dz2     :     0.150050  d :     0.556953
      dxz     :     0.134583
      dyz     :     0.108990
      dx2y2   :     0.099752
      dxy     :     0.063577
      f0      :     0.020242  f :     0.078979
      f+1     :     0.021317
      f-1     :     0.016721
      f+2     :     0.004542
      f-2     :     0.005395
      f+3     :     0.005030
      f-3     :     0.005731
  8 O s       :     3.277427  s :     3.277427
      pz      :     1.338052  p :     4.435737
      px      :     1.668745
      py      :     1.428940
      dz2     :     0.040081  d :     0.131414
      dxz     :     0.020902
      dyz     :     0.028487
      dx2y2   :     0.022332
      dxy     :     0.019613
      f0      :     0.001985  f :     0.009595
      f+1     :     0.001435
      f-1     :     0.002169
      f+2     :     0.000884
      f-2     :     0.000765
      f+3     :     0.001221
      f-3     :     0.001136
  9 H s       :     0.816806  s :     0.816806
      pz      :     0.014878  p :     0.064488
      px      :     0.030381
      py      :     0.019229
 10 H s       :     0.811269  s :     0.811269
      pz      :     0.033929  p :     0.064885
      px      :     0.016182
      py      :     0.014773
 11 H s       :     0.816410  s :     0.816410
      pz      :     0.025056  p :     0.064562
      px      :     0.025934
      py      :     0.013572
 12 H s       :     0.650017  s :     0.650017
      pz      :     0.057325  p :     0.165533
      px      :     0.035799
      py      :     0.072409
 13 H s       :     0.798112  s :     0.798112
      pz      :     0.021220  p :     0.067555
      px      :     0.013321
      py      :     0.033014
 14 H s       :     0.806579  s :     0.806579
      pz      :     0.014826  p :     0.067125
      px      :     0.027674
      py      :     0.024625
 15 H s       :     0.805240  s :     0.805240
      pz      :     0.014157  p :     0.063962
      px      :     0.034673
      py      :     0.015131
 16 H s       :     0.802170  s :     0.802170
      pz      :     0.015220  p :     0.063925
      px      :     0.020373
      py      :     0.028332
 17 H s       :     0.806054  s :     0.806054
      pz      :     0.013088  p :     0.063874
      px      :     0.030866
      py      :     0.019921
 18 H s       :     0.809824  s :     0.809824
      pz      :     0.033685  p :     0.063975
      px      :     0.013721
      py      :     0.016570
 19 H s       :     0.818725  s :     0.818725
      pz      :     0.011346  p :     0.062465
      px      :     0.013275
      py      :     0.037843
 20 H s       :     0.823829  s :     0.823829
      pz      :     0.011526  p :     0.061995
      px      :     0.033492
[...]
      py      :     0.692443
      dz2     :     0.040867  d :     0.197254
      dxz     :     0.035068
      dyz     :     0.046195
      dx2y2   :     0.030958
      dxy     :     0.044166
      f0      :     0.003538  f :     0.020509
      f+1     :     0.002983
      f-1     :     0.003599
      f+2     :     0.002798
      f-2     :     0.002321
      f+3     :     0.002541
      f-3     :     0.002729
  5 C s       :     3.180550  s :     3.180550
      pz      :     0.929183  p :     2.944314
      px      :     1.020212
      py      :     0.994919
      dz2     :     0.027852  d :     0.115959
      dxz     :     0.021968
      dyz     :     0.023586
      dx2y2   :     0.018787
      dxy     :     0.023766
      f0      :     0.001537  f :     0.010126
      f+1     :     0.001128
      f-1     :     0.001665
      f+2     :     0.001639
      f-2     :     0.001769
      f+3     :     0.001369
      f-3     :     0.001019
  6 C s       :     3.165394  s :     3.165394
      pz      :     0.990288  p :     2.942809
      px      :     1.000285
      py      :     0.952236
      dz2     :     0.027606  d :     0.107916
      dxz     :     0.014102
      dyz     :     0.018327
      dx2y2   :     0.022640
      dxy     :     0.025241
      f0      :     0.001394  f :     0.010014
      f+1     :     0.001112
      f-1     :     0.002080
      f+2     :     0.001006
      f-2     :     0.001555
      f+3     :     0.001288
      f-3     :     0.001579
  7 C s       :     3.183263  s :     3.183263
      pz      :     0.673242  p :     2.691626
      px      :     0.989183
      py      :     1.029202
      dz2     :     0.031644  d :     0.151685
      dxz     :     0.044146
      dyz     :     0.032959
      dx2y2   :     0.026420
      dxy     :     0.016515
      f0      :     0.003050  f :     0.014322
      f+1     :     0.003723
      f-1     :     0.002652
      f+2     :     0.000891
      f-2     :     0.000984
      f+3     :     0.001332
      f-3     :     0.001689
  8 O s       :     3.784245  s :     3.784245
      pz      :     1.304085  p :     4.486850
      px      :     1.768392
      py      :     1.414374
      dz2     :     0.019203  d :     0.068976
      dxz     :     0.011314
      dyz     :     0.013523
      dx2y2   :     0.013541
      dxy     :     0.011394
      f0      :     0.000959  f :     0.004780
      f+1     :     0.000660
      f-1     :     0.000711
      f+2     :     0.000565
      f-2     :     0.000516
      f+3     :     0.000699
      f-3     :     0.000671
  9 H s       :     0.849433  s :     0.849433
      pz      :     0.005420  p :     0.023938
      px      :     0.010572
      py      :     0.007946
 10 H s       :     0.833422  s :     0.833422
      pz      :     0.011976  p :     0.023916
      px      :     0.006101
      py      :     0.005838
 11 H s       :     0.846746  s :     0.846746
      pz      :     0.008926  p :     0.023816
      px      :     0.009533
      py      :     0.005357
 12 H s       :     0.619411  s :     0.619411
      pz      :     0.017973  p :     0.049521
      px      :     0.012649
      py      :     0.018899
 13 H s       :     0.844260  s :     0.844260
      pz      :     0.008570  p :     0.025568
      px      :     0.004973
      py      :     0.012025
 14 H s       :     0.849309  s :     0.849309
      pz      :     0.005853  p :     0.025320
      px      :     0.010775
      py      :     0.008692
 15 H s       :     0.850424  s :     0.850424
      pz      :     0.005420  p :     0.024426
      px      :     0.012971
      py      :     0.006036
 16 H s       :     0.842779  s :     0.842779
      pz      :     0.005811  p :     0.024377
      px      :     0.007156
      py      :     0.011409
 17 H s       :     0.857597  s :     0.857597
      pz      :     0.004926  p :     0.024339
      px      :     0.012048
      py      :     0.007365
 18 H s       :     0.850074  s :     0.850074
      pz      :     0.013157  p :     0.024369
      px      :     0.005039
      py      :     0.006172
 19 H s       :     0.850771  s :     0.850771
      pz      :     0.004601  p :     0.023538
      px      :     0.004880
      py      :     0.014057
 20 H s       :     0.881332  s :     0.881332
      pz      :     0.004649  p :     0.023146
      px      :     0.012646
      py      :     0.005851


                     *******************************
                     * LOEWDIN POPULATION ANALYSIS *
                     *******************************

----------------------
LOEWDIN ATOMIC CHARGES
----------------------
   0 C :   -0.269398
   1 C :   -0.359979
   2 O :    0.021931
   3 C :   -0.177556
   4 C :   -0.290887
   5 C :   -0.213443
   6 C :   -0.254864
   7 C :   -0.298225
   8 O :    0.185298
   9 H :    0.128545
  10 H :    0.132904
  11 H :    0.128177
  12 H :    0.181730
  13 H :    0.142403
  14 H :    0.135352
  15 H :    0.140426
  16 H :    0.143487
  17 H :    0.139346
  18 H :    0.135981
  19 H :    0.127363
  20 H :    0.121409

-------------------------------
LOEWDIN REDUCED ORBITAL CHARGES
-------------------------------
  0 C s       :     2.823060  s :     2.823060
      pz      :     1.067259  p :     3.129769
      px      :     1.048924
      py      :     1.013585
      dz2     :     0.043053  d :     0.286364
      dxz     :     0.049348
      dyz     :     0.071132
      dx2y2   :     0.052216
      dxy     :     0.070615
      f0      :     0.003871  f :     0.030205
      f+1     :     0.002969
      f-1     :     0.004349
      f+2     :     0.005534
      f-2     :     0.002738
      f+3     :     0.004576
      f-3     :     0.006169
  1 C s       :     2.689625  s :     2.689625
      pz      :     0.969772  p :     2.772591
      px      :     0.851586
      py      :     0.951233
      dz2     :     0.111663  d :     0.786030
      dxz     :     0.165429
      dyz     :     0.109124
      dx2y2   :     0.212264
      dxy     :     0.187550
      f0      :     0.009968  f :     0.111733
      f+1     :     0.013555
      f-1     :     0.009360
      f+2     :     0.012682
      f-2     :     0.019902
      f+3     :     0.025025
      f-3     :     0.021241
  2 O s       :     3.343553  s :     3.343553
      pz      :     1.666140  p :     4.528606
      px      :     1.515255
      py      :     1.347211
      dz2     :     0.012319  d :     0.098330
      dxz     :     0.018259
      dyz     :     0.019901
      dx2y2   :     0.027779
      dxy     :     0.020072
      f0      :     0.000893  f :     0.007580
      f+1     :     0.000912
      f-1     :     0.000617
      f+2     :     0.001510
      f-2     :     0.001027
      f+3     :     0.001244
      f-3     :     0.001376
  3 C s       :     2.777392  s :     2.777392
      pz      :     0.982653  p :     3.004790
      px      :     0.995966
      py      :     1.026171
      dz2     :     0.069828  d :     0.349761
      dxz     :     0.088984
      dyz     :     0.072030
      dx2y2   :     0.051559
      dxy     :     0.067360
      f0      :     0.008359  f :     0.045614
      f+1     :     0.011997
      f-1     :     0.005087
      f+2     :     0.007189
      f-2     :     0.003436
      f+3     :     0.005017
      f-3     :     0.004527
  4 C s       :     2.686554  s :     2.686554
      pz      :     0.943231  p :     2.743543
      px      :     0.981347
      py      :     0.818965
      dz2     :     0.170686  d :     0.750816
      dxz     :     0.146724
      dyz     :     0.162757
      dx2y2   :     0.125411
      dxy     :     0.145238
      f0      :     0.018067  f :     0.109974
      f+1     :     0.014216
      f-1     :     0.022128
      f+2     :     0.014479
      f-2     :     0.010766
      f+3     :     0.014832
      f-3     :     0.015485
  5 C s       :     2.773545  s :     2.773545
      pz      :     0.979104  p :     2.995942
      px      :     1.013879
      py      :     1.002959
      dz2     :     0.089010  d :     0.398477
      dxz     :     0.068836
      dyz     :     0.093639
      dx2y2   :     0.065904
      dxy     :     0.081088
      f0      :     0.008197  f :     0.045480
      f+1     :     0.005125
      f-1     :     0.007472
      f+2     :     0.007492
      f-2     :     0.008453
      f+3     :     0.005132
      f-3     :     0.003609
  6 C s       :     2.783701  s :     2.783701
      pz      :     0.996326  p :     3.023088
      px      :     1.021258
      py      :     1.005504
      dz2     :     0.106595  d :     0.402740
      dxz     :     0.040981
      dyz     :     0.079203
      dx2y2   :     0.074959
      dxy     :     0.101002
      f0      :     0.005127  f :     0.045336
      f+1     :     0.005288
      f-1     :     0.008194
      f+2     :     0.005815
      f-2     :     0.007929
      f+3     :     0.005769
      f-3     :     0.007213
  7 C s       :     2.802440  s :     2.802440
      pz      :     0.790149  p :     2.868480
      px      :     1.040590
      py      :     1.037741
      dz2     :     0.145868  d :     0.550014
      dxz     :     0.136510
      dyz     :     0.108137
      dx2y2   :     0.098096
      dxy     :     0.061402
      f0      :     0.020163  f :     0.077291
      f+1     :     0.020516
      f-1     :     0.016186
      f+2     :     0.004473
      f-2     :     0.005375
      f+3     :     0.004997
      f-3     :     0.005581
  8 O s       :     3.283561  s :     3.283561
      pz      :     1.329298  p :     4.387646
      px      :     1.642926
      py      :     1.415422
      dz2     :     0.039748  d :     0.133671
      dxz     :     0.021818
      dyz     :     0.029354
      dx2y2   :     0.022669
      dxy     :     0.020082
      f0      :     0.002052  f :     0.009824
      f+1     :     0.001465
      f-1     :     0.002229
      f+2     :     0.000901
      f-2     :     0.000767
      f+3     :     0.001242
      f-3     :     0.001167
  9 H s       :     0.805841  s :     0.805841
      pz      :     0.015489  p :     0.065614
      px      :     0.030459
      py      :     0.019666
 10 H s       :     0.801177  s :     0.801177
      pz      :     0.033842  p :     0.065919
      px      :     0.016699
      py      :     0.015378
 11 H s       :     0.806207  s :     0.806207
      pz      :     0.025325  p :     0.065616
      px      :     0.026165
      py      :     0.014126
 12 H s       :     0.651566  s :     0.651566
      pz      :     0.058222  p :     0.166704
      px      :     0.036521
      py      :     0.071961
 13 H s       :     0.788985  s :     0.788985
      pz      :     0.021728  p :     0.068613
      px      :     0.013874
      py      :     0.033011
 14 H s       :     0.796260  s :     0.796260
      pz      :     0.015462  p :     0.068388
      px      :     0.028093
      py      :     0.024833
 15 H s       :     0.794351  s :     0.794351
      pz      :     0.014789  p :     0.065223
      px      :     0.034721
      py      :     0.015714
 16 H s       :     0.791409  s :     0.791409
      pz      :     0.015804  p :     0.065103
      px      :     0.020803
      py      :     0.028496
 17 H s       :     0.795693  s :     0.795693
      pz      :     0.013651  p :     0.064960
      px      :     0.031011
      py      :     0.020299
 18 H s       :     0.798750  s :     0.798750
      pz      :     0.033770  p :     0.065269
      px      :     0.014355
      py      :     0.017144
 19 H s       :     0.809266  s :     0.809266
      pz      :     0.011920  p :     0.063371
      px      :     0.013830
      py      :     0.037621
 20 H s       :     0.815360  s :     0.815360
      pz      :     0.012266  p :     0.063231
      px      :     0.033563
      py      :     0.017402


                      *****************************
                      * MAYER POPULATION ANALYSIS *
                      *****************************

  NA   - Mulliken gross atomic population
  ZA   - Total nuclear charge
  QA   - Mulliken gross atomic charge
  VA   - Mayer's total valence
  BVA  - Mayer's bonded valence
  FA   - Mayer's free valence

  ATOM       NA         ZA         QA         VA         BVA        FA
  0 C      6.4171     6.0000    -0.4171     3.9999     3.7008     0.2992
  1 C      5.8253     6.0000     0.1747     4.0454     3.7056     0.3399
  2 O      8.4716     8.0000    -0.4716     2.2203     1.8215     0.3988
  3 C      6.2963     6.0000    -0.2963     3.9239     3.5909     0.3330
  4 C      5.8349     6.0000     0.1651     3.9109     3.5658     0.3451
  5 C      6.2509     6.0000    -0.2509     3.9577     3.6390     0.3187
  6 C      6.2261     6.0000    -0.2261     4.0523     3.7390     0.3133
  7 C      6.0409     6.0000    -0.0409     4.0444     3.7438     0.3006
  8 O      8.3449     8.0000    -0.3449     2.2662     1.8401     0.4261
  9 H      0.8734     1.0000     0.1266     0.9691     0.9193     0.0498
 10 H      0.8573     1.0000     0.1427     0.9795     0.9311     0.0484
 11 H      0.8706     1.0000     0.1294     0.9855     0.9364     0.0491
 12 H      0.6689     1.0000     0.3311     0.9292     0.8796     0.0497
 13 H      0.8698     1.0000     0.1302     1.0014     0.9525     0.0489
 14 H      0.8746     1.0000     0.1254     0.9776     0.9274     0.0502
 15 H      0.8748     1.0000     0.1252     0.9744     0.9245     0.0499
 16 H      0.8672     1.0000     0.1328     0.9665     0.9169     0.0496
 17 H      0.8819     1.0000     0.1181     0.9794     0.9302     0.0492
 18 H      0.8744     1.0000     0.1256     0.9776     0.9284     0.0492
 19 H      0.8743     1.0000     0.1257     0.9633     0.9152     0.0481
 20 H      0.9045     1.0000     0.0955     0.9725     0.9217     0.0508

  Mayer bond orders larger than 0.1
B(  0-C ,  1-C ) :   0.8924 B(  0-C ,  9-H ) :   0.9363 B(  0-C , 10-H ) :   0.9331 
B(  0-C , 11-H ) :   0.9368 B(  1-C ,  2-O ) :   1.0402 B(  1-C ,  3-C ) :   0.8816 
B(  1-C ,  4-C ) :   0.8696 B(  2-O , 12-H ) :   0.8118 B(  3-C ,  4-C ) :   0.8932 
B(  3-C , 13-H ) :   0.8993 B(  3-C , 14-H ) :   0.9093 B(  4-C ,  5-C ) :   0.8877 
B(  4-C ,  8-O ) :   0.8900 B(  5-C ,  6-C ) :   0.9444 B(  5-C , 15-H ) :   0.9202 
B(  5-C , 16-H ) :   0.9330 B(  6-C ,  7-C ) :   0.9593 B(  6-C , 17-H ) :   0.9231 
B(  6-C , 18-H ) :   0.9281 B(  7-C ,  8-O ) :   0.9089 B(  7-C , 19-H ) :   0.9262 
B(  7-C , 20-H ) :   0.9256 


-------
TIMINGS
-------

Total time                : 1047.842 sec
Integral trafo            :    8.060 sec (  0.8%)
FC preparation            :    4.566 sec (  0.4%)
I/O of integrals          :    0.062 sec (  0.0%)
K(i,j) Operators          :   12.091 sec (  1.2%)
T(i,j) pair energies      :    1.040 sec (  0.1%)
V-calculation             :    0.020 sec (  0.0%)
V**(-1/2)                 :    0.139 sec (  0.0%)
Gamma(ia|P)               :   11.877 sec (  1.1%)
Gamma-Trafo               :    1.835 sec (  0.2%)
D(virtual)                :    4.486 sec (  0.4%)
D(internal)               :    3.988 sec (  0.4%)
W(virtual)                :    0.000 sec (  0.0%)
W(internal)               :    0.000 sec (  0.0%)
L(virtual)                :   14.344 sec (  1.4%)
L(internal)               :    0.216 sec (  0.0%)
G(D)                      :  166.073 sec ( 15.8%)
G(Z)                      :    0.000 sec (  0.0%)
Z-Vector Solution         :  818.176 sec ( 78.1%)
3-Index Derivative        :    0.000 sec (  0.0%)
2-Index Derivative        :    0.000 sec (  0.0%)
Separable Gradient (RIJ)  :    0.000 sec (  0.0%)
Separable Gradient (X)    :    0.000 sec (  0.0%)


---------------------------------------
MP2 TOTAL ENERGY:     -423.515799901 Eh
---------------------------------------

-------------------------   --------------------
FINAL SINGLE POINT ENERGY      -423.515799900668
-------------------------   --------------------


                            ***************************************
                            *     ORCA property calculations      *
                            ***************************************

                                    ---------------------
                                    Active property flags
                                    ---------------------
   (+) Dipole Moment


------------------------------------------------------------------------------
                       ORCA ELECTRIC PROPERTIES CALCULATION
------------------------------------------------------------------------------

Dipole Moment Calculation                       ... on
Quadrupole Moment Calculation                   ... off
Polarizability Calculation                      ... off
GBWName                                         ... dsgdb9nsd_063590.gbw
Electron density file                           ... dsgdb9nsd_063590.scfp.tmp

-------------
DIPOLE MOMENT
-------------
                                X             Y             Z
Electronic contribution:     -1.81221      -3.95605      -2.39248
Nuclear contribution   :      2.49250       4.19010       3.37938
                        -----------------------------------------
Total Dipole Moment    :      0.68029       0.23405       0.98690
                        -----------------------------------------
Magnitude (a.u.)       :      1.22129
Magnitude (Debye)      :      3.10427


                         *** MP2 UNRELAXED DENSITY ***

------------------------------------------------------------------------------
                       ORCA ELECTRIC PROPERTIES CALCULATION
------------------------------------------------------------------------------

Dipole Moment Calculation                       ... on
Quadrupole Moment Calculation                   ... off
Polarizability Calculation                      ... off
GBWName                                         ... dsgdb9nsd_063590.gbw
Electron density file                           ... dsgdb9nsd_063590.pmp2ur

-------------
DIPOLE MOMENT
-------------
                                X             Y             Z
Electronic contribution:     -1.83108      -3.97503      -2.41291
Nuclear contribution   :      2.49250       4.19010       3.37938
                        -----------------------------------------
Total Dipole Moment    :      0.66142       0.21507       0.96647
                        -----------------------------------------
Magnitude (a.u.)       :      1.19071
Magnitude (Debye)      :      3.02655


                           *** MP2 RELAXED DENSITY ***

------------------------------------------------------------------------------
                       ORCA ELECTRIC PROPERTIES CALCULATION
------------------------------------------------------------------------------

Dipole Moment Calculation                       ... on
Quadrupole Moment Calculation                   ... off
Polarizability Calculation                      ... off
GBWName                                         ... dsgdb9nsd_063590.gbw
Electron density file                           ... dsgdb9nsd_063590.pmp2re

-------------
DIPOLE MOMENT
-------------
                                X             Y             Z
Electronic contribution:     -1.86646      -3.99655      -2.43528
Nuclear contribution   :      2.49250       4.19010       3.37938
                        -----------------------------------------
Total Dipole Moment    :      0.62604       0.19355       0.94409
                        -----------------------------------------
Magnitude (a.u.)       :      1.14921
Magnitude (Debye)      :      2.92107


Timings for individual modules:

Sum of individual times         ...     1237.915 sec (=  20.632 min)
GTO integral calculation        ...        0.640 sec (=   0.011 min)   0.1 %
SCF iterations                  ...      189.278 sec (=   3.155 min)  15.3 %
MP2 module                      ...     1047.996 sec (=  17.467 min)  84.7 %
                             ****ORCA TERMINATED NORMALLY****
TOTAL RUN TIME: 0 days 0 hours 20 minutes 38 seconds 450 msec
