
                                 *****************
                                 * O   R   C   A *
                                 *****************

           --- An Ab Initio, DFT and Semiempirical electronic structure package ---

                  #######################################################
                  #                        -***-                        #
                  #  Department of molecular theory and spectroscopy    #
                  #              Directorship: Frank Neese              #
                  # Max Planck Institute for Chemical Energy Conversion #
                  #                  D-45470 Muelheim/Ruhr              #
                  #                       Germany                       #
                  #                                                     #
                  #                  All rights reserved                #
                  #                        -***-                        #
                  #######################################################


                         Program Version 3.0.3 - RELEASE   -


 With contributions from (in alphabetic order):
   Ute Becker             : Parallelization
   Dmytro Bykov           : SCF Hessian
   Dmitry Ganyushin       : Spin-Orbit,Spin-Spin,Magnetic field MRCI
   Andreas Hansen         : Spin unrestricted coupled pair/coupled cluster methods
   Dimitrios Liakos       : Extrapolation schemes; parallel MDCI
   Robert Izsak           : Overlap fitted RIJCOSX, COSX-SCS-MP3
   Christian Kollmar      : KDIIS, OOCD, Brueckner-CCSD(T), CCSD density
   Simone Kossmann        : Meta GGA functionals, TD-DFT gradient, OOMP2, MP2 Hessian
   Taras Petrenko         : DFT Hessian,TD-DFT gradient, ASA and ECA modules, normal mode analysis, Resonance Raman, ABS, FL, XAS/XES, NRVS
   Christoph Reimann      : Effective Core Potentials
   Michael Roemelt        : Restricted open shell CIS
   Christoph Riplinger    : Improved optimizer, TS searches, QM/MM, DLPNO-CCSD
   Barbara Sandhoefer     : DKH picture change effects
   Igor Schapiro          : Molecular dynamics
   Kantharuban Sivalingam : CASSCF convergence, NEVPT2
   Boris Wezisla          : Elementary symmetry handling
   Frank Wennmohs         : Technical directorship


 We gratefully acknowledge several colleagues who have allowed us to
 interface, adapt or use parts of their codes:
   Stefan Grimme, W. Hujo, H. Kruse, T. Risthaus : VdW corrections, initial TS optimization,
                                                   DFT functionals, gCP
   Ed Valeev                                     : LibInt (2-el integral package), F12 methods
   Garnet Chan, S. Sharma, R. Olivares           : DMRG
   Ulf Ekstrom                                   : XCFun DFT Library
   Mihaly Kallay                                 : mrcc  (arbitrary order and MRCC methods)
   Andreas Klamt, Michael Diedenhofen            : otool_cosmo (COSMO solvation model)
   Frank Weinhold                                : gennbo (NPA and NBO analysis)
   Christopher J. Cramer and Donald G. Truhlar   : smd solvation model


 Your calculation uses the libint2 library for the computation of 2-el integrals
 For citations please refer to: http://libint.valeyev.net

 This ORCA versions uses:
   CBLAS   interface :  Fast vector & matrix operations
   LAPACKE interface :  Fast linear algebra routines
   SCALAPACK package :  Parallel linear algebra routines


Your calculation utilizes the basis: Ahlrichs-TZV
Cite in your paper:
H - Kr: A. Schaefer, H. Horn and R. Ahlrichs, J. Chem. Phys. 97, 2571 (1992).

The def2-TZV basis will be loaded
Cite in your paper:
 	F. Weigend, R. Ahlrichs, Phys. Chem. Chem. Phys. 2005, 7, 3297.

================================================================================
                                        WARNINGS
                       Please study these warnings very carefully!
================================================================================
Now building the actual basis set


INFO   : the flag for use of LIBINT has been found!

================================================================================
                                       INPUT FILE
================================================================================
NAME = dsgdb9nsd_092113.inp
|  1> ! RI-MP2 RIJK def2-TZVP def2-TZVP/C def2-TZVP/JK TIGHTSCF
|  2> % maxcore 2000
|  3> % mp2 density relaxed end
|  4> *xyz 0 1
|  5>  O       -0.0368619180     1.4596908600    -0.0287759662 
|  6>  C        0.0095132144     0.0349241701     0.0249951076 
|  7>  C        0.6838780743    -0.5211100340     1.3130972854 
|  8>  C       -0.4969057506    -0.9113684679     2.2117012788 
|  9>  C       -1.4342137295     0.3203625069     2.4767684625 
| 10>  C       -2.2714570335    -0.1383426737     1.2893928583 
| 11>  O       -3.5875692072     0.2029396079     1.0467715323 
| 12>  C       -1.5686789239    -1.4915301123     1.2454564760 
| 13>  C       -1.4106531081    -0.5050272540     0.1054355390 
| 14>  H        0.8629928127     1.7793930803    -0.1484331944 
| 15>  H        0.5119705633    -0.3513162968    -0.8735951713 
| 16>  H        1.2835951865    -1.4064611272     1.0717518145 
| 17>  H        1.3471614889     0.2223331140     1.7681574468 
| 18>  H       -0.2317090017    -1.4983977465     3.0907094660 
| 19>  H       -1.9844216815     0.1964310046     3.4161187478 
| 20>  H       -0.9910683079     1.3187801873     2.4335593670 
| 21>  H       -4.1001351578    -0.0109145722     1.8346364445 
| 22>  H       -1.9318698448    -2.5064870891     1.1546391358 
| 23>  H       -1.9742000056    -0.6742962875    -0.8046227606 
| 24> *
| 25> 
| 26>                          ****END OF INPUT****
================================================================================

                       ****************************
                       * Single Point Calculation *
                       ****************************

---------------------------------
CARTESIAN COORDINATES (ANGSTROEM)
---------------------------------
  O     -0.036862    1.459691   -0.028776
  C      0.009513    0.034924    0.024995
  C      0.683878   -0.521110    1.313097
  C     -0.496906   -0.911368    2.211701
  C     -1.434214    0.320363    2.476768
  C     -2.271457   -0.138343    1.289393
  O     -3.587569    0.202940    1.046772
  C     -1.568679   -1.491530    1.245456
  C     -1.410653   -0.505027    0.105436
  H      0.862993    1.779393   -0.148433
  H      0.511971   -0.351316   -0.873595
  H      1.283595   -1.406461    1.071752
  H      1.347161    0.222333    1.768157
  H     -0.231709   -1.498398    3.090709
  H     -1.984422    0.196431    3.416119
  H     -0.991068    1.318780    2.433559
  H     -4.100135   -0.010915    1.834636
  H     -1.931870   -2.506487    1.154639
  H     -1.974200   -0.674296   -0.804623

----------------------------
CARTESIAN COORDINATES (A.U.)
----------------------------
  NO LB      ZA    FRAG    MASS        X           Y           Z
   0 O     8.0000    0    15.999         -0.069658929791062          2.758415965587987         -0.054378695356975
   1 C     6.0000    0    12.011          0.017977369869276          0.065997116943481          0.047233908051894
   2 C     6.0000    0    12.011          1.292342269420450         -0.984755249898392          2.481394256601432
   3 C     6.0000    0    12.011         -0.939015783004576         -1.722236811422401          4.179509706975413
   4 C     6.0000    0    12.011         -2.710271166264814          0.605397401617457          4.680414091258207
   5 C     6.0000    0    12.011         -4.292431718284190         -0.261429765927430          2.436599381220931
   6 O     8.0000    0    15.999         -6.779523288096986          0.383500280656362          1.978111520832104
   7 C     6.0000    0    12.011         -2.964373558225296         -2.818583432743810          2.353571651358666
   8 C     6.0000    0    12.011         -2.665748044273811         -0.954363200226286          0.199244293492373
   9 H     1.0000    0     1.008          1.630820071545398          3.362565606361546         -0.280498086599094
  10 H     1.0000    0     1.008          0.967484153266394         -0.663891587335395         -1.650855625673022
  11 H     1.0000    0     1.008          2.425643369304573         -2.657826348414182          2.025317412938171
  12 H     1.0000    0     1.008          2.545766272186595          0.420148695961893          3.341333336105436
  13 H     1.0000    0     1.008         -0.437866555977294         -2.831561380569761          5.840594450257996
  14 H     1.0000    0     1.008         -3.750013512250504          0.371200802905026          6.455528874296002
  15 H     1.0000    0     1.008         -1.872847681939744          2.492133384838373          4.598760734268758
  16 H     1.0000    0     1.008         -7.748132560303994         -0.020625552326910          3.466960435416016
  17 H     1.0000    0     1.008         -3.650704933052952         -4.736574156608476          2.181951750169509
  18 H     1.0000    0     1.008         -3.730697344169801         -1.274235316494828         -1.520516658653683

--------------------------------
INTERNAL COORDINATES (ANGSTROEM)
--------------------------------
 O      0   0   0   0.000000     0.000     0.000
 C      1   0   0   1.426535     0.000     0.000
 C      2   1   0   1.556647   113.705     0.000
 C      3   2   1   1.534289   104.010    99.967
 C      4   3   2   1.570340   111.021   302.448
 C      5   4   3   1.523564    87.725    93.522
 O      6   5   4   1.381119   125.886   159.089
 C      6   5   4   1.525432    92.083    12.677
 C      6   5   4   1.509038   111.786   314.365
 H      1   2   3   0.962427   107.822    69.409
 H      2   1   3   1.099595   109.565   235.600
 H      3   2   1   1.096246   110.078   217.955
 H      3   2   1   1.095323   111.326   337.634
 H      4   3   2   1.089765   114.970   168.895
 H      5   4   3   1.095658   110.838   205.138
 H      5   4   3   1.093198   117.888   333.013
 H      7   6   5   0.963944   107.957   306.524
 H      8   6   5   1.081801   132.845   133.857
 H      9   6   5   1.083717   113.589   189.738

---------------------------
INTERNAL COORDINATES (A.U.)
---------------------------
 O      0   0   0   0.000000     0.000     0.000
 C      1   0   0   2.695760     0.000     0.000
 C      2   1   0   2.941636   113.705     0.000
 C      3   2   1   2.899385   104.010    99.967
 C      4   3   2   2.967513   111.021   302.448
 C      5   4   3   2.879119    87.725    93.522
 O      6   5   4   2.609937   125.886   159.089
 C      6   5   4   2.882649    92.083    12.677
 C      6   5   4   2.851669   111.786   314.365
 H      1   2   3   1.818724   107.822    69.409
 H      2   1   3   2.077934   109.565   235.600
 H      3   2   1   2.071604   110.078   217.955
 H      3   2   1   2.069860   111.326   337.634
 H      4   3   2   2.059358   114.970   168.895
 H      5   4   3   2.070494   110.838   205.138
 H      5   4   3   2.065846   117.888   333.013
 H      7   6   5   1.821591   107.957   306.524
 H      8   6   5   2.044307   132.845   133.857
 H      9   6   5   2.047929   113.589   189.738

---------------------
BASIS SET INFORMATION
---------------------
There are 3 groups of distinct atoms

 Group   1 Type O   : 11s6p2d1f contracted to 5s3p2d1f pattern {62111/411/11/1}
 Group   2 Type C   : 11s6p2d1f contracted to 5s3p2d1f pattern {62111/411/11/1}
 Group   3 Type H   : 5s1p contracted to 3s1p pattern {311/1}

Atom   0O    basis set group =>   1
Atom   1C    basis set group =>   2
Atom   2C    basis set group =>   2
Atom   3C    basis set group =>   2
Atom   4C    basis set group =>   2
Atom   5C    basis set group =>   2
Atom   6O    basis set group =>   1
Atom   7C    basis set group =>   2
Atom   8C    basis set group =>   2
Atom   9H    basis set group =>   3
Atom  10H    basis set group =>   3
Atom  11H    basis set group =>   3
Atom  12H    basis set group =>   3
Atom  13H    basis set group =>   3
Atom  14H    basis set group =>   3
Atom  15H    basis set group =>   3
Atom  16H    basis set group =>   3
Atom  17H    basis set group =>   3
Atom  18H    basis set group =>   3
-------------------------------
AUXILIARY BASIS SET INFORMATION
-------------------------------
There are 3 groups of distinct atoms

 Group   1 Type O   : 14s10p6d2f1g contracted to 10s8p4d2f1g pattern {5111111111/31111111/3111/11/1}
 Group   2 Type C   : 14s10p6d2f1g contracted to 10s8p5d1f1g pattern {5111111111/31111111/21111/2/1}
 Group   3 Type H   : 4s2p2d contracted to 2s2p2d pattern {31/11/11}

Atom   0O    basis set group =>   1
Atom   1C    basis set group =>   2
Atom   2C    basis set group =>   2
Atom   3C    basis set group =>   2
Atom   4C    basis set group =>   2
Atom   5C    basis set group =>   2
Atom   6O    basis set group =>   1
Atom   7C    basis set group =>   2
Atom   8C    basis set group =>   2
Atom   9H    basis set group =>   3
Atom  10H    basis set group =>   3
Atom  11H    basis set group =>   3
Atom  12H    basis set group =>   3
Atom  13H    basis set group =>   3
Atom  14H    basis set group =>   3
Atom  15H    basis set group =>   3
Atom  16H    basis set group =>   3
Atom  17H    basis set group =>   3
Atom  18H    basis set group =>   3
------------------------------------------------------------------------------
                           ORCA GTO INTEGRAL CALCULATION
                           -- RI-GTO INTEGRALS CHOSEN --
------------------------------------------------------------------------------

                         BASIS SET STATISTICS AND STARTUP INFO

Gaussian basis set:
 # of primitive gaussian shells          ...  240
 # of primitive gaussian functions       ...  494
 # of contracted shells                  ...  139
 # of contracted basis functions         ...  339
 Highest angular momentum                ...    3
 Maximum contraction depth               ...    6
Auxiliary gaussian basis set:
 # of primitive gaussian shells          ...  377
 # of primitive gaussian functions       ... 1073
 # of contracted shells                  ...  285
 # of contracted aux-basis functions     ...  859
 Highest angular momentum                ...    4
 Maximum contraction depth               ...    5
Ratio of auxiliary to basis functions    ...  2.53
Integral package used                  ... LIBINT
 One Electron integrals                  ... done
 Ordering auxiliary basis shells         ... done
 Integral threshhold             Thresh  ...  2.500e-11
 Primitive cut-off               TCut    ...  2.500e-12
 Pre-screening matrix                    ... done
 Shell pair data                         ... 
 Ordering of the shell pairs             ... done (   0.002 sec) 9141 of 9730 pairs
 Determination of significant pairs      ... done (   0.000 sec)
 Creation of shell pair data             ... done (   0.002 sec)
 Storage of shell pair data              ... done (   0.002 sec)
 Shell pair data done in (   0.006 sec)
 Computing two index integrals           ... done
 Cholesky decomposition of the V-matrix  ... done


Timings:
 Total evaluation time                   ...   0.400 sec (  0.007 min)
 One electron matrix time                ...   0.097 sec (  0.002 min) = 24.4%
 Schwartz matrix evaluation time         ...   0.213 sec (  0.004 min) = 53.3%
 Two index repulsion integral time       ...   0.022 sec (  0.000 min) =  5.4%
 Cholesky decomposition of V             ...   0.034 sec (  0.001 min) =  8.5%
 Three index repulsion integral time     ...   0.000 sec (  0.000 min) =  0.0%

-------------------------------------------------------------------------------
                                 ORCA SCF
-------------------------------------------------------------------------------

------------
SCF SETTINGS
------------
Hamiltonian:
 Ab initio Hamiltonian  Method          .... Hartree-Fock(GTOs)
 RI-approximation to the Coulomb term is turned on
   Number of auxiliary basis functions  .... 859
   RI-JK (J+K treated both via RI)      .... on


General Settings:
 Integral files         IntName         .... dsgdb9nsd_092113
 Hartree-Fock type      HFTyp           .... RHF
 Total Charge           Charge          ....    0
 Multiplicity           Mult            ....    1
 Number of Electrons    NEL             ....   68
 Basis Dimension        Dim             ....  339
 Nuclear Repulsion      ENuc            ....    480.8331141001 Eh

Convergence Acceleration:
 DIIS                   CNVDIIS         .... on
   Start iteration      DIISMaxIt       ....    12
   Startup error        DIISStart       ....  0.200000
   # of expansion vecs  DIISMaxEq       ....     5
   Bias factor          DIISBfac        ....   1.050
   Max. coefficient     DIISMaxC        ....  10.000
 Newton-Raphson         CNVNR           .... off
 SOSCF                  CNVSOSCF        .... on
   Start iteration      SOSCFMaxIt      ....   150
   Startup grad/error   SOSCFStart      ....  0.003300
 Level Shifting         CNVShift        .... on
   Level shift para.    LevelShift      ....    0.2500
   Turn off err/grad.   ShiftErr        ....    0.0010
 Zerner damping         CNVZerner       .... off
 Static damping         CNVDamp         .... on
   Fraction old density DampFac         ....    0.7000
   Max. Damping (<1)    DampMax         ....    0.9800
   Min. Damping (>=0)   DampMin         ....    0.0000
   Turn off err/grad.   DampErr         ....    0.1000
 Fernandez-Rico         CNVRico         .... off

SCF Procedure:
 Maximum # iterations   MaxIter         ....   125
 SCF integral mode      SCFMode         .... Direct
   Integral package                     .... LIBINT
 Reset frequeny         DirectResetFreq ....    20
 Integral Threshold     Thresh          ....  2.500e-11 Eh
 Primitive CutOff       TCut            ....  2.500e-12 Eh

Convergence Tolerance:
 Convergence Check Mode ConvCheckMode   .... Total+1el-Energy
 Energy Change          TolE            ....  1.000e-08 Eh
 1-El. energy change                    ....  1.000e-05 Eh
 Orbital Gradient       TolG            ....  1.000e-05
 Orbital Rotation angle TolX            ....  1.000e-05
 DIIS Error             TolErr          ....  5.000e-07


Diagonalization of the overlap matrix:
Smallest eigenvalue                        ... 3.177e-05
Time for diagonalization                   ...    0.033 sec
Threshold for overlap eigenvalues          ... 1.000e-08
Number of eigenvalues below threshold      ... 0
Time for construction of square roots      ...    0.017 sec
Total time needed                          ...    0.050 sec

-------------------
DFT GRID GENERATION
-------------------

General Integration Accuracy     IntAcc      ...  4.340
Radial Grid Type                 RadialGrid  ... Gauss-Chebyshev
Angular Grid (max. acc.)         AngularGrid ... Lebedev-110
Angular grid pruning method      GridPruning ... 3 (G Style)
Weight generation scheme         WeightScheme... Becke
Basis function cutoff            BFCut       ...    1.0000e-11
Integration weight cutoff        WCut        ...    1.0000e-14
Grids for H and He will be reduced by one unit

# of grid points (after initial pruning)     ...  22964 (   0.0 sec)
# of grid points (after weights+screening)   ...  20900 (   0.1 sec)
nearest neighbour list constructed           ...    0.0 sec
Grid point re-assignment to atoms done       ...    0.0 sec
Grid point division into batches done        ...    0.0 sec
Reduced shell lists constructed in    1.3 sec

Total number of grid points                  ...    20900
Total number of batches                      ...      337
Average number of points per batch           ...       62
Average number of grid points per atom       ...     1100
Average number of shells per batch           ...    97.80 (70.36%)
Average number of basis functions per batch  ...   247.06 (72.88%)
Average number of large shells per batch     ...    77.28 (79.02%)
Average number of large basis fcns per batch ...   192.71 (78.00%)
Average number of aux-shells per batch       ...    97.80 (34.32%)
Average number of aux functions per batch    ...   247.06 (  inf%)
Maximum spatial batch extension              ...  19.72, 21.64, 21.28 au
Average spatial batch extension              ...   3.57,  3.62,  3.63 au

Time for grid setup =    1.419 sec

------------------------------
INITIAL GUESS: MODEL POTENTIAL
------------------------------
Loading Hartree-Fock densities                     ... done
Calculating cut-offs                               ... done
Setting up the integral package                    ... done
Initializing the effective Hamiltonian             ... done
Starting the Coulomb interaction                   ... done (   0.8 sec)
Reading the grid                                   ... done
Mapping shells                                     ... done
Starting the XC term evaluation                    ... done (   0.8 sec)
Transforming the Hamiltonian                       ... done (   0.0 sec)
Diagonalizing the Hamiltonian                      ... done (   0.1 sec)
Back transforming the eigenvectors                 ... done (   0.0 sec)
Now organizing SCF variables                       ... done
                      ------------------
                      INITIAL GUESS DONE (   3.2 sec)
                      ------------------
--------------
SCF ITERATIONS
--------------
ITER       Energy         Delta-E        Max-DP      RMS-DP      [F,P]     Damp
  0   -420.2896851700   0.000000000000 0.07433667  0.00116624  0.2900045 0.7000
  1   -420.1198866046   0.169798565396 0.10442333  0.00130412  0.2613019 0.7000
                               ***Turning on DIIS***
  2   -420.1652319044  -0.045345299753 0.06810376  0.00087709  0.1857504 0.7000
  3   -421.3207150800  -1.155483175621 0.01459218  0.00037470  0.1319777 0.7000
  4   -420.5026771138   0.818037966232 0.08942013  0.00112971  0.0863433 0.0000
  5   -420.8055867174  -0.302909603684 0.01022270  0.00025486  0.0193717 0.0000
  6   -420.6242803371   0.181306380325 0.00809850  0.00013706  0.0123076 0.0000
  7   -420.6450696389  -0.020789301825 0.00204061  0.00005426  0.0055800 0.0000
  8   -420.6135525702   0.031517068784 0.00286541  0.00005706  0.0054654 0.0000
                      *** Initiating the SOSCF procedure ***
                           *** Shutting down DIIS ***
                      *** Re-Reading the Fockian *** 
                      *** Removing any level shift *** 
ITER      Energy       Delta-E        Grad      Rot      Max-DP    RMS-DP
  9   -420.69617804  -0.0826254741  0.000090  0.000090  0.000683  0.000017
 10   -420.69815922  -0.0019811774  0.000030  0.000060  0.000162  0.000005
 11   -420.69815934  -0.0000001205  0.000012  0.000024  0.000073  0.000002
 12   -420.69815938  -0.0000000348  0.000003  0.000009  0.000016  0.000000
                  ***Gradient check signals convergence***
              ***Rediagonalizing the Fockian in SOSCF/NRSCF***

               *****************************************************
               *                     SUCCESS                       *
               *           SCF CONVERGED AFTER  13 CYCLES          *
               *****************************************************


----------------
TOTAL SCF ENERGY
----------------

Total Energy       :         -420.69815938 Eh          -11447.77891 eV

Components:
Nuclear Repulsion  :          480.83311410 Eh           13084.13422 eV
Electronic Energy  :         -901.53127348 Eh          -24531.91313 eV

One Electron Energy:        -1528.06655803 Eh          -41580.80497 eV
Two Electron Energy:          626.53528455 Eh           17048.89184 eV

Virial components:
Potential Energy   :         -840.86744232 Eh          -22881.16636 eV
Kinetic Energy     :          420.16928294 Eh           11433.38745 eV
Virial Ratio       :            2.00125872


---------------
SCF CONVERGENCE
---------------

  Last Energy change         ...   -1.8533e-09  Tolerance :   1.0000e-08
  Last MAX-Density change    ...    4.8087e-06  Tolerance :   1.0000e-07
  Last RMS-Density change    ...    1.3331e-07  Tolerance :   5.0000e-09
  Last Orbital Gradient      ...    1.2082e-06  Tolerance :   1.0000e-05
  Last Orbital Rotation      ...    2.3502e-06  Tolerance :   1.0000e-05

             **** THE GBW FILE WAS UPDATED (dsgdb9nsd_092113.gbw) ****
             **** DENSITY FILE WAS UPDATED (dsgdb9nsd_092113.scfp.tmp) ****
             **** ENERGY FILE WAS UPDATED (dsgdb9nsd_092113.en.tmp) ****
----------------
ORBITAL ENERGIES
----------------

  NO   OCC          E(Eh)            E(eV) 
   0   2.0000     -20.562958      -559.5465 
   1   2.0000     -20.549330      -559.1757 
   2   2.0000     -11.285650      -307.0981 
   3   2.0000     -11.278500      -306.9036 
   4   2.0000     -11.234332      -305.7017 
   5   2.0000     -11.223973      -305.4198 
   6   2.0000     -11.223101      -305.3961 
   7   2.0000     -11.220488      -305.3250 
   8   2.0000     -11.220038      -305.3128 
   9   2.0000      -1.375497       -37.4292 
  10   2.0000      -1.354856       -36.8675 
  11   2.0000      -1.198434       -32.6110 
  12   2.0000      -1.013165       -27.5696 
  13   2.0000      -0.993621       -27.0378 
  14   2.0000      -0.892143       -24.2764 
  15   2.0000      -0.817686       -22.2504 
  16   2.0000      -0.762057       -20.7366 
  17   2.0000      -0.734852       -19.9964 
  18   2.0000      -0.715631       -19.4733 
  19   2.0000      -0.680616       -18.5205 
  20   2.0000      -0.648422       -17.6445 
  21   2.0000      -0.628622       -17.1057 
  22   2.0000      -0.592345       -16.1185 
  23   2.0000      -0.572746       -15.5852 
  24   2.0000      -0.563721       -15.3396 
  25   2.0000      -0.547129       -14.8881 
  26   2.0000      -0.522724       -14.2240 
  27   2.0000      -0.517230       -14.0745 
  28   2.0000      -0.484645       -13.1879 
  29   2.0000      -0.462716       -12.5911 
  30   2.0000      -0.439045       -11.9470 
  31   2.0000      -0.427299       -11.6274 
  32   2.0000      -0.392322       -10.6756 
  33   2.0000      -0.362119        -9.8538 
  34   0.0000       0.134375         3.6565 
  35   0.0000       0.144768         3.9393 
  36   0.0000       0.158163         4.3038 
  37   0.0000       0.174844         4.7577 
  38   0.0000       0.189882         5.1670 
  39   0.0000       0.193823         5.2742 
  40   0.0000       0.202145         5.5007 
  41   0.0000       0.214967         5.8496 
  42   0.0000       0.226554         6.1649 
  43   0.0000       0.236256         6.4288 
  44   0.0000       0.250305         6.8111 
  45   0.0000       0.258541         7.0353 
  46   0.0000       0.280028         7.6200 
  47   0.0000       0.291527         7.9328 
  48   0.0000       0.309773         8.4294 
  49   0.0000       0.314505         8.5581 
  50   0.0000       0.328479         8.9384 
  51   0.0000       0.330825         9.0022 
  52   0.0000       0.347137         9.4461 
  53   0.0000       0.360785         9.8175 
  54   0.0000       0.383806        10.4439 
  55   0.0000       0.397009        10.8032 
  56   0.0000       0.404660        11.0114 
  57   0.0000       0.427575        11.6349 
  58   0.0000       0.442589        12.0434 
  59   0.0000       0.471510        12.8304 
  60   0.0000       0.485782        13.2188 
  61   0.0000       0.492297        13.3961 
  62   0.0000       0.504475        13.7275 
  63   0.0000       0.512011        13.9325 
  64   0.0000       0.527077        14.3425 
  65   0.0000       0.537231        14.6188 
  66   0.0000       0.547730        14.9045 
  67   0.0000       0.556196        15.1349 
  68   0.0000       0.561497        15.2791 
  69   0.0000       0.566190        15.4068 
  70   0.0000       0.580201        15.7881 
  71   0.0000       0.590052        16.0561 
  72   0.0000       0.590591        16.0708 
  73   0.0000       0.599187        16.3047 
  74   0.0000       0.604121        16.4390 
  75   0.0000       0.614132        16.7114 
  76   0.0000       0.616514        16.7762 
  77   0.0000       0.629088        17.1184 
  78   0.0000       0.635756        17.2998 
  79   0.0000       0.646933        17.6039 
  80   0.0000       0.656644        17.8682 
  81   0.0000       0.677109        18.4251 
  82   0.0000       0.684364        18.6225 
  83   0.0000       0.686344        18.6764 
  84   0.0000       0.715131        19.4597 
  85   0.0000       0.735535        20.0149 
  86   0.0000       0.739959        20.1353 
  87   0.0000       0.752419        20.4744 
  88   0.0000       0.771598        20.9962 
  89   0.0000       0.782402        21.2902 
  90   0.0000       0.801125        21.7997 
  91   0.0000       0.810562        22.0565 
  92   0.0000       0.823503        22.4087 
  93   0.0000       0.844453        22.9787 
  94   0.0000       0.880511        23.9599 
  95   0.0000       0.884749        24.0752 
  96   0.0000       0.924126        25.1467 
  97   0.0000       0.938976        25.5508 
  98   0.0000       0.953390        25.9430 
  99   0.0000       1.005984        27.3742 
 100   0.0000       1.028496        27.9868 
 101   0.0000       1.048869        28.5412 
 102   0.0000       1.056305        28.7435 
 103   0.0000       1.089477        29.6462 
 104   0.0000       1.111853        30.2551 
 105   0.0000       1.131426        30.7877 
 106   0.0000       1.143502        31.1163 
 107   0.0000       1.151117        31.3235 
 108   0.0000       1.185095        32.2481 
 109   0.0000       1.210830        32.9484 
 110   0.0000       1.214877        33.0585 
 111   0.0000       1.260417        34.2977 
 112   0.0000       1.281166        34.8623 
 113   0.0000       1.283538        34.9268 
 114   0.0000       1.293214        35.1901 
 115   0.0000       1.324683        36.0465 
 116   0.0000       1.334562        36.3153 
 117   0.0000       1.337323        36.3904 
 118   0.0000       1.374999        37.4156 
 119   0.0000       1.378672        37.5156 
 120   0.0000       1.392616        37.8950 
 121   0.0000       1.393597        37.9217 
 122   0.0000       1.415707        38.5234 
 123   0.0000       1.439604        39.1736 
 124   0.0000       1.452674        39.5293 
 125   0.0000       1.465053        39.8661 
 126   0.0000       1.486068        40.4380 
 127   0.0000       1.502513        40.8854 
 128   0.0000       1.505691        40.9719 
 129   0.0000       1.515007        41.2254 
 130   0.0000       1.522505        41.4295 
 131   0.0000       1.556168        42.3455 
 132   0.0000       1.577581        42.9282 
 133   0.0000       1.615328        43.9553 
 134   0.0000       1.622967        44.1632 
 135   0.0000       1.673678        45.5431 
 136   0.0000       1.744453        47.4690 
 137   0.0000       1.752850        47.6975 
 138   0.0000       1.781420        48.4749 
 139   0.0000       1.800742        49.0007 
 140   0.0000       1.841871        50.1199 
 141   0.0000       1.864187        50.7271 
 142   0.0000       1.876079        51.0507 
 143   0.0000       1.888003        51.3752 
 144   0.0000       1.907727        51.9119 
 145   0.0000       1.913813        52.0775 
 146   0.0000       1.942901        52.8690 
 147   0.0000       1.955245        53.2049 
 148   0.0000       1.965105        53.4732 
 149   0.0000       1.977372        53.8070 
 150   0.0000       1.995950        54.3125 
 151   0.0000       2.015912        54.8557 
 152   0.0000       2.045124        55.6506 
 153   0.0000       2.052725        55.8575 
 154   0.0000       2.083202        56.6868 
 155   0.0000       2.094482        56.9938 
 156   0.0000       2.130429        57.9719 
 157   0.0000       2.150816        58.5267 
 158   0.0000       2.182249        59.3820 
 159   0.0000       2.189422        59.5772 
 160   0.0000       2.218428        60.3665 
 161   0.0000       2.242917        61.0329 
 162   0.0000       2.254549        61.3494 
 163   0.0000       2.286545        62.2201 
 164   0.0000       2.304204        62.7006 
 165   0.0000       2.326061        63.2953 
 166   0.0000       2.332809        63.4790 
 167   0.0000       2.378056        64.7102 
 168   0.0000       2.394493        65.1575 
 169   0.0000       2.415129        65.7190 
 170   0.0000       2.434574        66.2481 
 171   0.0000       2.474991        67.3479 
 172   0.0000       2.487810        67.6967 
 173   0.0000       2.505870        68.1882 
 174   0.0000       2.523866        68.6779 
 175   0.0000       2.544646        69.2433 
 176   0.0000       2.552251        69.4503 
 177   0.0000       2.558194        69.6120 
 178   0.0000       2.572032        69.9886 
 179   0.0000       2.591890        70.5289 
 180   0.0000       2.616388        71.1955 
 181   0.0000       2.622323        71.3570 
 182   0.0000       2.652637        72.1819 
 183   0.0000       2.670189        72.6595 
 184   0.0000       2.708668        73.7066 
 185   0.0000       2.713820        73.8468 
 186   0.0000       2.741421        74.5978 
 187   0.0000       2.746399        74.7333 
 188   0.0000       2.772768        75.4508 
 189   0.0000       2.801539        76.2337 
 190   0.0000       2.812717        76.5379 
 191   0.0000       2.833325        77.0987 
 192   0.0000       2.852628        77.6239 
 193   0.0000       2.863913        77.9310 
 194   0.0000       2.881692        78.4148 
 195   0.0000       2.898892        78.8829 
 196   0.0000       2.909455        79.1703 
 197   0.0000       2.931507        79.7703 
 198   0.0000       2.942830        80.0785 
 199   0.0000       2.959329        80.5274 
 200   0.0000       2.966422        80.7205 
 201   0.0000       2.986204        81.2587 
 202   0.0000       3.003370        81.7259 
 203   0.0000       3.032390        82.5155 
 204   0.0000       3.038619        82.6850 
 205   0.0000       3.070758        83.5596 
 206   0.0000       3.079928        83.8091 
 207   0.0000       3.108306        84.5813 
 208   0.0000       3.134733        85.3004 
 209   0.0000       3.149364        85.6985 
 210   0.0000       3.156313        85.8876 
 211   0.0000       3.160719        86.0075 
 212   0.0000       3.185131        86.6718 
 213   0.0000       3.211711        87.3951 
 214   0.0000       3.227776        87.8322 
 215   0.0000       3.255416        88.5844 
 216   0.0000       3.285369        89.3994 
 217   0.0000       3.303378        89.8895 
 218   0.0000       3.306183        89.9658 
 219   0.0000       3.333742        90.7157 
 220   0.0000       3.345575        91.0377 
 221   0.0000       3.349293        91.1389 
 222   0.0000       3.382673        92.0472 
 223   0.0000       3.395683        92.4012 
 224   0.0000       3.432079        93.3916 
 225   0.0000       3.454766        94.0090 
 226   0.0000       3.463630        94.2502 
 227   0.0000       3.478318        94.6498 
 228   0.0000       3.490271        94.9751 
 229   0.0000       3.507078        95.4324 
 230   0.0000       3.519816        95.7791 
 231   0.0000       3.529081        96.0312 
 232   0.0000       3.542960        96.4089 
 233   0.0000       3.562410        96.9381 
 234   0.0000       3.583918        97.5234 
 235   0.0000       3.613886        98.3388 
 236   0.0000       3.631554        98.8196 
 237   0.0000       3.656792        99.5064 
 238   0.0000       3.664533        99.7170 
 239   0.0000       3.685962       100.3001 
 240   0.0000       3.701062       100.7110 
 241   0.0000       3.730816       101.5207 
 242   0.0000       3.744716       101.8989 
 243   0.0000       3.782879       102.9374 
 244   0.0000       3.792440       103.1975 
 245   0.0000       3.819925       103.9455 
 246   0.0000       3.843168       104.5779 
 247   0.0000       3.852747       104.8386 
 248   0.0000       3.871377       105.3455 
 249   0.0000       3.922624       106.7400 
 250   0.0000       3.932240       107.0017 
 251   0.0000       3.956183       107.6532 
 252   0.0000       3.962077       107.8136 
 253   0.0000       3.998156       108.7953 
 254   0.0000       4.017088       109.3105 
 255   0.0000       4.058687       110.4425 
 256   0.0000       4.086790       111.2072 
 257   0.0000       4.101951       111.6198 
 258   0.0000       4.123167       112.1971 
 259   0.0000       4.145398       112.8020 
 260   0.0000       4.168334       113.4261 
 261   0.0000       4.207927       114.5035 
 262   0.0000       4.231376       115.1416 
 263   0.0000       4.243710       115.4772 
 264   0.0000       4.261986       115.9745 
 265   0.0000       4.272025       116.2477 
 266   0.0000       4.304386       117.1283 
 267   0.0000       4.332583       117.8956 
 268   0.0000       4.375667       119.0680 
 269   0.0000       4.382547       119.2552 
 270   0.0000       4.405862       119.8896 
 271   0.0000       4.424050       120.3845 
 272   0.0000       4.434904       120.6799 
 273   0.0000       4.459678       121.3540 
 274   0.0000       4.479487       121.8931 
 275   0.0000       4.513417       122.8163 
 276   0.0000       4.519974       122.9947 
 277   0.0000       4.540314       123.5482 
 278   0.0000       4.562293       124.1463 
 279   0.0000       4.605245       125.3151 
 280   0.0000       4.630279       125.9963 
 281   0.0000       4.650226       126.5391 
 282   0.0000       4.662265       126.8667 
 283   0.0000       4.683378       127.4412 
 284   0.0000       4.693287       127.7108 
 285   0.0000       4.723749       128.5397 
 286   0.0000       4.756846       129.4403 
 287   0.0000       4.803279       130.7039 
 288   0.0000       4.842609       131.7741 
 289   0.0000       4.912708       133.6816 
 290   0.0000       4.926101       134.0460 
 291   0.0000       5.016091       136.4948 
 292   0.0000       5.031228       136.9067 
 293   0.0000       5.070505       137.9755 
 294   0.0000       5.154031       140.2483 
 295   0.0000       5.194009       141.3362 
 296   0.0000       5.228124       142.2645 
 297   0.0000       5.256468       143.0358 
 298   0.0000       5.282335       143.7396 
 299   0.0000       5.307390       144.4214 
 300   0.0000       5.367341       146.0528 
 301   0.0000       5.376509       146.3022 
 302   0.0000       5.423410       147.5785 
 303   0.0000       5.456957       148.4914 
 304   0.0000       5.470504       148.8600 
 305   0.0000       5.499413       149.6466 
 306   0.0000       5.745321       156.3381 
 307   0.0000       5.764026       156.8471 
 308   0.0000       5.858561       159.4195 
 309   0.0000       5.904569       160.6715 
 310   0.0000       5.955126       162.0472 
 311   0.0000       5.979579       162.7126 
 312   0.0000       6.233779       169.6298 
 313   0.0000       6.279112       170.8633 
 314   0.0000       6.393228       173.9686 
 315   0.0000       6.401991       174.2070 
 316   0.0000       6.467565       175.9914 
 317   0.0000       6.604069       179.7059 
 318   0.0000       6.814121       185.4217 
 319   0.0000       6.822102       185.6388 
 320   0.0000       7.028546       191.2565 
 321   0.0000       7.049092       191.8156 
 322   0.0000       7.247059       197.2025 
 323   0.0000       7.249398       197.2661 
 324   0.0000       7.344340       199.8497 
 325   0.0000       7.356195       200.1722 
 326   0.0000       7.531092       204.9314 
 327   0.0000       7.547682       205.3829 
 328   0.0000       7.693964       209.3634 
 329   0.0000       7.711797       209.8487 
 330   0.0000      23.545317       640.7006 
 331   0.0000      23.579856       641.6405 
 332   0.0000      23.671927       644.1459 
 333   0.0000      23.683474       644.4601 
 334   0.0000      23.782991       647.1681 
 335   0.0000      23.798854       647.5997 
 336   0.0000      24.037102       654.0828 
 337   0.0000      45.587252      1240.4922 
 338   0.0000      45.652691      1242.2729 

                    ********************************
                    * MULLIKEN POPULATION ANALYSIS *
                    ********************************

-----------------------
MULLIKEN ATOMIC CHARGES
-----------------------
   0 O :   -0.537686
   1 C :    0.212575
   2 C :   -0.304729
   3 C :    0.122525
   4 C :   -0.202239
   5 C :    0.197794
   6 O :   -0.523974
   7 C :   -0.247835
   8 C :   -0.153727
   9 H :    0.317435
  10 H :    0.067066
  11 H :    0.089465
  12 H :    0.085280
  13 H :    0.108042
  14 H :    0.081907
  15 H :    0.098768
  16 H :    0.330862
  17 H :    0.138051
  18 H :    0.120421
Sum of atomic charges:    0.0000000

--------------------------------
MULLIKEN REDUCED ORBITAL CHARGES
--------------------------------
  0 O s       :     3.799047  s :     3.799047
      pz      :     1.905839  p :     4.704077
      px      :     1.450104
      py      :     1.348133
      dz2     :     0.005071  d :     0.032778
      dxz     :     0.001723
      dyz     :     0.003318
      dx2y2   :     0.016371
      dxy     :     0.006294
      f0      :     0.000210  f :     0.001785
      f+1     :     0.000337
      f-1     :     0.000386
      f+2     :     0.000124
      f-2     :     0.000053
      f+3     :     0.000210
      f-3     :     0.000466
  1 C s       :     3.080729  s :     3.080729
      pz      :     0.944211  p :     2.520508
      px      :     0.942949
      py      :     0.633348
      dz2     :     0.024356  d :     0.172778
      dxz     :     0.027833
      dyz     :     0.039848
      dx2y2   :     0.036110
      dxy     :     0.044630
      f0      :     0.001831  f :     0.013411
      f+1     :     0.001559
      f-1     :     0.001757
      f+2     :     0.002347
      f-2     :     0.000747
      f+3     :     0.002903
      f-3     :     0.002266
  2 C s       :     3.231243  s :     3.231243
      pz      :     0.942183  p :     2.969650
      px      :     0.999213
      py      :     1.028254
      dz2     :     0.021707  d :     0.097318
      dxz     :     0.024669
      dyz     :     0.016068
      dx2y2   :     0.007730
      dxy     :     0.027144
      f0      :     0.000923  f :     0.006518
      f+1     :     0.001244
      f-1     :     0.000546
      f+2     :     0.000934
      f-2     :     0.001536
      f+3     :     0.000887
      f-3     :     0.000448
  3 C s       :     2.997670  s :     2.997670
      pz      :     0.909072  p :     2.745420
      px      :     0.910609
      py      :     0.925739
      dz2     :     0.020724  d :     0.125200
      dxz     :     0.027844
      dyz     :     0.023852
      dx2y2   :     0.020473
      dxy     :     0.032308
      f0      :     0.000784  f :     0.009186
      f+1     :     0.001573
      f-1     :     0.001246
      f+2     :     0.001251
      f-2     :     0.001797
      f+3     :     0.001300
      f-3     :     0.001234
  4 C s       :     3.179003  s :     3.179003
      pz      :     0.969709  p :     2.919048
      px      :     0.979476
      py      :     0.969863
      dz2     :     0.023927  d :     0.097332
      dxz     :     0.022899
      dyz     :     0.008653
      dx2y2   :     0.017683
      dxy     :     0.024170
      f0      :     0.000894  f :     0.006857
      f+1     :     0.001592
      f-1     :     0.000642
      f+2     :     0.000566
      f-2     :     0.000999
      f+3     :     0.001389
      f-3     :     0.000775
  5 C s       :     3.047110  s :     3.047110
      pz      :     0.975062  p :     2.553954
      px      :     0.674302
      py      :     0.904590
      dz2     :     0.030767  d :     0.182832
      dxz     :     0.058958
      dyz     :     0.024554
      dx2y2   :     0.037652
      dxy     :     0.030900
      f0      :     0.002730  f :     0.018311
      f+1     :     0.002222
      f-1     :     0.001161
      f+2     :     0.002757
      f-2     :     0.002408
      f+3     :     0.003463
      f-3     :     0.003571
  6 O s       :     3.793575  s :     3.793575
      pz      :     1.541882  p :     4.693018
      px      :     1.307686
      py      :     1.843450
      dz2     :     0.008217  d :     0.035496
      dxz     :     0.011458
      dyz     :     0.003400
      dx2y2   :     0.006398
      dxy     :     0.006023
      f0      :     0.000068  f :     0.001885
      f+1     :     0.000492
      f-1     :     0.000136
      f+2     :     0.000270
      f-2     :     0.000173
      f+3     :     0.000405
      f-3     :     0.000340
  7 C s       :     3.195263  s :     3.195263
      pz      :     0.974169  p :     2.952435
      px      :     1.027412
      py      :     0.950855
      dz2     :     0.020608  d :     0.089965
      dxz     :     0.019404
      dyz     :     0.016593
      dx2y2   :     0.013927
      dxy     :     0.019433
      f0      :     0.001301  f :     0.010172
      f+1     :     0.000922
      f-1     :     0.001485
      f+2     :     0.001673
      f-2     :     0.001528
      f+3     :     0.002038
      f-3     :     0.001225
  8 C s       :     3.156296  s :     3.156296
      pz      :     0.910521  p :     2.877088
      px      :     0.933743
      py      :     1.032824
      dz2     :     0.013830  d :     0.110111
      dxz     :     0.033069
      dyz     :     0.021196
      dx2y2   :     0.022368
      dxy     :     0.019647
      f0      :     0.000993  f :     0.010232
      f+1     :     0.002353
      f-1     :     0.001583
      f+2     :     0.001591
      f-2     :     0.001522
      f+3     :     0.000899
      f-3     :     0.001292
  9 H s       :     0.636392  s :     0.636392
      pz      :     0.015985  p :     0.046172
      px      :     0.018554
      py      :     0.011633
 10 H s       :     0.911577  s :     0.911577
      pz      :     0.011734  p :     0.021357
      px      :     0.005900
      py      :     0.003723
 11 H s       :     0.888409  s :     0.888409
      pz      :     0.004132  p :     0.022126
      px      :     0.007357
      py      :     0.010637
 12 H s       :     0.892734  s :     0.892734
      pz      :     0.005714  p :     0.021986
      px      :     0.007959
      py      :     0.008313
 13 H s       :     0.869303  s :     0.869303
      pz      :     0.011212  p :     0.022655
      px      :     0.004422
      py      :     0.007021
 14 H s       :     0.895894  s :     0.895894
      pz      :     0.012322  p :     0.022199
      px      :     0.006304
      py      :     0.003573
 15 H s       :     0.878905  s :     0.878905
      pz      :     0.003425  p :     0.022327
      px      :     0.005262
      py      :     0.013639
 16 H s       :     0.623790  s :     0.623790
      pz      :     0.017208  p :     0.045348
      px      :     0.013215
      py      :     0.014925
 17 H s       :     0.838367  s :     0.838367
      pz      :     0.004224  p :     0.023581
      px      :     0.005218
      py      :     0.014140
 18 H s       :     0.855716  s :     0.855716
      pz      :     0.012246  p :     0.023863
      px      :     0.006893
      py      :     0.004724


                     *******************************
                     * LOEWDIN POPULATION ANALYSIS *
                     *******************************

----------------------
LOEWDIN ATOMIC CHARGES
----------------------
   0 O :   -0.051451
   1 C :   -0.273879
   2 C :   -0.195834
   3 C :   -0.168641
   4 C :   -0.152645
   5 C :   -0.289053
   6 O :    0.004310
   7 C :   -0.113788
   8 C :   -0.123911
   9 H :    0.168871
  10 H :    0.122889
  11 H :    0.126707
  12 H :    0.123048
  13 H :    0.127712
  14 H :    0.122637
  15 H :    0.121808
  16 H :    0.182214
  17 H :    0.123179
  18 H :    0.145827

-------------------------------
LOEWDIN REDUCED ORBITAL CHARGES
-------------------------------
  0 O s       :     3.361832  s :     3.361832
      pz      :     1.789850  p :     4.617711
      px      :     1.445365
      py      :     1.382496
      dz2     :     0.008734  d :     0.067757
      dxz     :     0.001311
      dyz     :     0.011631
      dx2y2   :     0.026250
      dxy     :     0.019831
      f0      :     0.000371  f :     0.004151
      f+1     :     0.000382
      f-1     :     0.000554
      f+2     :     0.000549
      f-2     :     0.000045
      f+3     :     0.001230
      f-3     :     0.001020
  1 C s       :     2.741847  s :     2.741847
      pz      :     0.993496  p :     2.795892
      px      :     1.012914
      py      :     0.789483
      dz2     :     0.106750  d :     0.648545
      dxz     :     0.102566
      dyz     :     0.146776
      dx2y2   :     0.157406
      dxy     :     0.135047
      f0      :     0.012186  f :     0.087595
      f+1     :     0.006590
      f-1     :     0.011575
      f+2     :     0.015453
      f-2     :     0.006759
      f+3     :     0.019211
      f-3     :     0.015822
  2 C s       :     2.776751  s :     2.776751
      pz      :     0.999364  p :     2.996977
      px      :     0.985330
      py      :     1.012283
      dz2     :     0.083268  d :     0.383729
      dxz     :     0.094800
      dyz     :     0.062472
      dx2y2   :     0.032593
      dxy     :     0.110596
      f0      :     0.007122  f :     0.038377
      f+1     :     0.007120
      f-1     :     0.003362
      f+2     :     0.006949
      f-2     :     0.005448
      f+3     :     0.005026
      f-3     :     0.003351
  3 C s       :     2.723977  s :     2.723977
      pz      :     0.971541  p :     2.891759
      px      :     0.953119
      py      :     0.967099
      dz2     :     0.080698  d :     0.497071
      dxz     :     0.111245
      dyz     :     0.103058
      dx2y2   :     0.088641
      dxy     :     0.113430
      f0      :     0.005581  f :     0.055833
      f+1     :     0.011502
      f-1     :     0.006395
      f+2     :     0.006636
      f-2     :     0.008154
      f+3     :     0.008622
      f-3     :     0.008944
  4 C s       :     2.770942  s :     2.770942
      pz      :     0.983065  p :     2.961592
      px      :     0.985088
      py      :     0.993439
      dz2     :     0.092050  d :     0.380181
      dxz     :     0.082763
      dyz     :     0.046070
      dx2y2   :     0.075472
      dxy     :     0.083826
      f0      :     0.005631  f :     0.039930
      f+1     :     0.005827
      f-1     :     0.004876
      f+2     :     0.005210
      f-2     :     0.007769
      f+3     :     0.006232
      f-3     :     0.004385
  5 C s       :     2.664256  s :     2.664256
      pz      :     0.974345  p :     2.729458
      px      :     0.824114
      py      :     0.930999
      dz2     :     0.138706  d :     0.785544
      dxz     :     0.192975
      dyz     :     0.101016
      dx2y2   :     0.170294
      dxy     :     0.182553
      f0      :     0.018724  f :     0.109796
      f+1     :     0.013760
      f-1     :     0.006523
      f+2     :     0.017243
      f-2     :     0.014384
      f+3     :     0.017096
      f-3     :     0.022066
  6 O s       :     3.338589  s :     3.338589
      pz      :     1.517049  p :     4.580292
      px      :     1.328117
      py      :     1.735126
      dz2     :     0.010729  d :     0.072278
      dxz     :     0.028378
      dyz     :     0.003139
      dx2y2   :     0.015637
      dxy     :     0.014396
      f0      :     0.000431  f :     0.004530
      f+1     :     0.001202
      f-1     :     0.000225
      f+2     :     0.000538
      f-2     :     0.000504
      f+3     :     0.000933
      f-3     :     0.000698
  7 C s       :     2.723295  s :     2.723295
      pz      :     0.960513  p :     2.883444
      px      :     0.966314
      py      :     0.956617
      dz2     :     0.095572  d :     0.448978
      dxz     :     0.075665
      dyz     :     0.091142
      dx2y2   :     0.108905
      dxy     :     0.077694
      f0      :     0.008884  f :     0.058071
      f+1     :     0.004896
      f-1     :     0.008142
      f+2     :     0.008881
      f-2     :     0.012006
      f+3     :     0.007502
      f-3     :     0.007762
  8 C s       :     2.709271  s :     2.709271
      pz      :     0.933589  p :     2.885363
      px      :     0.966271
      py      :     0.985503
      dz2     :     0.089389  d :     0.473109
      dxz     :     0.143911
      dyz     :     0.073797
      dx2y2   :     0.088826
      dxy     :     0.077186
      f0      :     0.006790  f :     0.056168
      f+1     :     0.010809
      f-1     :     0.008906
      f+2     :     0.009200
      f-2     :     0.009868
      f+3     :     0.005229
      f-3     :     0.005366
  9 H s       :     0.672542  s :     0.672542
      pz      :     0.046705  p :     0.158587
      px      :     0.079653
      py      :     0.032229
 10 H s       :     0.822329  s :     0.822329
      pz      :     0.027313  p :     0.054781
      px      :     0.016152
      py      :     0.011316
 11 H s       :     0.815643  s :     0.815643
      pz      :     0.012930  p :     0.057650
      px      :     0.018000
      py      :     0.026719
 12 H s       :     0.819090  s :     0.819090
      pz      :     0.016128  p :     0.057862
      px      :     0.019331
      py      :     0.022403
 13 H s       :     0.814216  s :     0.814216
      pz      :     0.026668  p :     0.058072
      px      :     0.012785
      py      :     0.018619
 14 H s       :     0.819474  s :     0.819474
      pz      :     0.027846  p :     0.057889
      px      :     0.017953
      py      :     0.012089
 15 H s       :     0.818116  s :     0.818116
      pz      :     0.011366  p :     0.060076
      px      :     0.015585
      py      :     0.033124
 16 H s       :     0.662149  s :     0.662149
      pz      :     0.071385  p :     0.155637
      px      :     0.038444
      py      :     0.045808
 17 H s       :     0.813576  s :     0.813576
      pz      :     0.013074  p :     0.063245
      px      :     0.015807
      py      :     0.034365
 18 H s       :     0.793580  s :     0.793580
      pz      :     0.027247  p :     0.060594
      px      :     0.018406
      py      :     0.014940


                      *****************************
                      * MAYER POPULATION ANALYSIS *
                      *****************************

  NA   - Mulliken gross atomic population
  ZA   - Total nuclear charge
  QA   - Mulliken gross atomic charge
  VA   - Mayer's total valence
  BVA  - Mayer's bonded valence
  FA   - Mayer's free valence

  ATOM       NA         ZA         QA         VA         BVA        FA
  0 O      8.5377     8.0000    -0.5377     1.8718     1.8718    -0.0000
  1 C      5.7874     6.0000     0.2126     3.9078     3.9078    -0.0000
  2 C      6.3047     6.0000    -0.3047     4.0514     4.0514     0.0000
  3 C      5.8775     6.0000     0.1225     3.6890     3.6890     0.0000
  4 C      6.2022     6.0000    -0.2022     4.0314     4.0314     0.0000
  5 C      5.8022     6.0000     0.1978     3.9622     3.9622    -0.0000
  6 O      8.5240     8.0000    -0.5240     1.8629     1.8629    -0.0000
  7 C      6.2478     6.0000    -0.2478     3.8205     3.8205     0.0000
  8 C      6.1537     6.0000    -0.1537     3.8279     3.8279     0.0000
  9 H      0.6826     1.0000     0.3174     0.9148     0.9148    -0.0000
 10 H      0.9329     1.0000     0.0671     0.9653     0.9653    -0.0000
 11 H      0.9105     1.0000     0.0895     0.9768     0.9768     0.0000
 12 H      0.9147     1.0000     0.0853     0.9835     0.9835    -0.0000
 13 H      0.8920     1.0000     0.1080     0.9541     0.9541     0.0000
 14 H      0.9181     1.0000     0.0819     0.9775     0.9775     0.0000
 15 H      0.9012     1.0000     0.0988     0.9898     0.9898     0.0000
 16 H      0.6691     1.0000     0.3309     0.9010     0.9010    -0.0000
 17 H      0.8619     1.0000     0.1381     0.9639     0.9639     0.0000
 18 H      0.8796     1.0000     0.1204     0.9822     0.9822     0.0000

  Mayer bond orders larger than 0.1
B(  0-O ,  1-C ) :   1.0358 B(  0-O ,  9-H ) :   0.8945 B(  1-C ,  2-C ) :   1.0040 
B(  1-C ,  8-C ) :   0.9314 B(  1-C , 10-H ) :   1.0027 B(  2-C ,  3-C ) :   0.9341 
B(  2-C , 11-H ) :   0.9804 B(  2-C , 12-H ) :   0.9820 B(  3-C ,  4-C ) :   0.9902 
B(  3-C ,  7-C ) :   0.9163 B(  3-C , 13-H ) :   0.9653 B(  4-C ,  5-C ) :   1.0441 
B(  4-C , 14-H ) :   0.9772 B(  4-C , 15-H ) :   0.9555 B(  5-C ,  6-O ) :   1.0233 
B(  5-C ,  7-C ) :   0.9157 B(  5-C ,  8-C ) :   0.9776 B(  6-O , 16-H ) :   0.8823 
B(  7-C ,  8-C ) :   1.0011 B(  7-C , 17-H ) :   0.9456 B(  8-C , 18-H ) :   0.9699 


-------
TIMINGS
-------

Total SCF time: 0 days 0 hours 2 min 19 sec 

Total time                  ....     139.778 sec
Sum of individual times     ....     144.237 sec  (103.2%)

Fock matrix formation       ....     138.278 sec  ( 98.9%)
Diagonalization             ....       0.719 sec  (  0.5%)
Density matrix formation    ....       0.043 sec  (  0.0%)
Population analysis         ....       0.164 sec  (  0.1%)
Initial guess               ....       3.176 sec  (  2.3%)
Orbital Transformation      ....       0.000 sec  (  0.0%)
Orbital Orthonormalization  ....       0.000 sec  (  0.0%)
DIIS solution               ....       0.200 sec  (  0.1%)
SOSCF solution              ....       0.239 sec  (  0.2%)

   <<< Auxbasis replaced with dsgdb9nsd_092113.AUXC.tmp (Dim=834) >>> 


------------------------------------------------------------------------------
                              ORCA MP2 CALCULATION
------------------------------------------------------------------------------

Freezing NCore=18 chemical core electrons

   <<< Use J-auxbasis for calculation of Separable RI-J derivative contributions dsgdb9nsd_092113.AUXJ.tmp (Dim=859) >>> 


---------------------
RI-MP2 ENERGY+DENSITY
---------------------
Dimension of the basis                    ...  339
Memory devoted to MP2                     ... 2000 MB   
Data format for buffers                   ... DOUBLE
Compression type for matrix containers    ... UNCOMPRESSED
Overall scaling of the MP2 energy         ...   1.000e+00 Eh
Calculating two index integrals           ... done (    0.018 sec)
Cholesky decomposition of V**-1           ... done (    0.116 sec)

-----------------
RI-TRANSFORMATION (AUX index driven)
-----------------

Dimension of the orbital-basis         ... 339
Dimension of the aux-basis             ... 834
Transformation of internal MOs         ...    0-  33
Transformation of internal/external MOs...    0-  33 to   34- 338
Number Format for Storage              ... Double (8 Byte)
Integral mode                          ... Direct

First Phase: integral generation and transformation of MO indices
  Aux angular momentum 0               ... done (    0.823 sec)
  Aux angular momentum 1               ... done (    1.096 sec)
  Aux angular momentum 2               ... done (    1.170 sec)
  Aux angular momentum 3               ... done (    0.886 sec)
  Aux angular momentum 4               ... done (    0.410 sec)
Closing buffer VIJ ( 0.00 GB; CompressionRatio= 1.94)
Closing buffer VIA ( 0.06 GB; CompressionRatio= 1.00)
  Phase 1 completed in     4.485 sec
Second Phase: sorting and transformation of aux index

IJ-Transformation
Memory available                       ... 1986 MB 
Max. # MO pairs treated in a batch     ... 34    
# of internal orbitals                 ... 34
# batches for internal orbitals        ... 1
Closing buffer IJV ( 0.00 GB; CompressionRatio= 1.00)
(ij|v) transformation done in     0.347 sec

IA-Transformation
Memory available                       ... 1986 MB 
Max. # MO pairs treated in a batch     ... 34    
# of internal orbitals                 ... 34
# batches for internal orbitals        ... 1
Closing buffer IAV ( 0.06 GB; CompressionRatio= 1.00)
(ia|v) transformation done in     3.165 sec

  Phase 2 completed in     3.543 sec
RI-Integral transformation completed in     8.030 sec
Opening buffers                              ... done
Frozen core precalculation                   ... done

Starting loop over batches of integrals:

Operator 0  - window                       ... (  9- 33)x( 34-338)
Operator 0  - Memory available             ...  2000 MB
Operator 0  - Memory needed per MO         ...   3.9 MB
Operator 0  - Number of orbitals per batch ... 25
Operator 0  - Number of batches            ... 1

OPERATOR  0   PASS   0:  MOs     9 ...   33
  Reading integrals       ... ok
  Internal MO  11
  Internal MO  14
  Internal MO  17
  Internal MO  20
  Internal MO  23
  Internal MO  26
  Internal MO  29
  Internal MO  32
Time spent in pair loops =    39.042 sec
Deleting buffer (Ka|jb)[aa] ...done

-----------------------------------------------
 RI-MP2 CORRELATION ENERGY:     -1.606403986 Eh
-----------------------------------------------


---------------------
MP2 DENSITY FORMATION
---------------------

Completing the external part of the density      ... done
Storing the unrelaxed density                    ... done

Calculating G(D)                                 ... done
Completing the Lagrangian                        ... done
Solving the Z-vector equations                   ... 

------------------------------------------------------------------------------
                           ORCA CP-SCF CALCULATION
------------------------------------------------------------------------------

Input orbitals are from        ... dsgdb9nsd_092113.gbw
Input Perturbation             ... dsgdb9nsd_092113.pin.tmp
Wavefunction output            ... dsgdb9nsd_092113.pout.tmp
Perturbation mode              ... Real perturbation
Solver                         ... POPLE
Max. number of iterations      ... 128
Convergence tolerance          ... 1.000e-08
Integral handling              ... Direct
Number of perturbations        ... 1
Number of operators            ... 1
Orbital ranges used for CP-SCF:
 Operator 0:  Orbitals   0... 33  to  34...338
Variables per vector in CP-SCF ... 10370
Number of vectors sought       ... 1
     CP-SCF ITERATION   0: 
     CP-SCF ITERATION   1:      0.000915206
     CP-SCF ITERATION   2:      0.000071858
     CP-SCF ITERATION   3:      0.000007194
     CP-SCF ITERATION   4:      0.000000614
     CP-SCF ITERATION   5:      0.000000040
     CP-SCF ITERATION   6:      0.000000005
done
Finalizing the relaxed density                   ... done
Transforming P to the AO basis                   ... done
Storing the relaxed density                      ... done

                *********************************************
                * UNRELAXED MP2 DENSITY POPULATION ANALYSIS *
                *********************************************

------------------------------------------------------------------------------
                           ORCA POPULATION ANALYSIS
------------------------------------------------------------------------------
Input electron density              ... dsgdb9nsd_092113.pmp2ur
BaseName (.gbw .S,...)              ... dsgdb9nsd_092113

                    ********************************
                    * MULLIKEN POPULATION ANALYSIS *
                    ********************************

-----------------------
MULLIKEN ATOMIC CHARGES
-----------------------
   0 O :   -0.523657
   1 C :    0.194832
   2 C :   -0.312909
   3 C :    0.116420
   4 C :   -0.211098
   5 C :    0.187127
   6 O :   -0.510424
   7 C :   -0.249423
   8 C :   -0.156500
   9 H :    0.315110
  10 H :    0.071186
  11 H :    0.093412
  12 H :    0.089417
  13 H :    0.112732
  14 H :    0.086189
  15 H :    0.102153
  16 H :    0.328346
  17 H :    0.142105
  18 H :    0.124982
Sum of atomic charges:    0.0000000

--------------------------------
MULLIKEN REDUCED ORBITAL CHARGES
--------------------------------
  0 O s       :     3.793166  s :     3.793166
      pz      :     1.890383  p :     4.665305
      px      :     1.438985
      py      :     1.335937
      dz2     :     0.010726  d :     0.060716
      dxz     :     0.007568
      dyz     :     0.009159
      dx2y2   :     0.021458
      dxy     :     0.011805
      f0      :     0.000586  f :     0.004469
      f+1     :     0.000702
      f-1     :     0.000757
      f+2     :     0.000519
      f-2     :     0.000427
      f+3     :     0.000619
      f-3     :     0.000859
  1 C s       :     3.080316  s :     3.080316
      pz      :     0.940547  p :     2.515055
      px      :     0.937113
      py      :     0.637395
      dz2     :     0.028311  d :     0.192627
      dxz     :     0.032382
      dyz     :     0.044199
      dx2y2   :     0.038840
      dxy     :     0.048896
      f0      :     0.002448  f :     0.017171
      f+1     :     0.002049
      f-1     :     0.002237
      f+2     :     0.002959
      f-2     :     0.001311
      f+3     :     0.003488
      f-3     :     0.002679
  2 C s       :     3.229095  s :     3.229095
      pz      :     0.936239  p :     2.951126
      px      :     0.992101
      py      :     1.022786
      dz2     :     0.026885  d :     0.122303
      dxz     :     0.028351
      dyz     :     0.021276
      dx2y2   :     0.013548
      dxy     :     0.032242
      f0      :     0.001491  f :     0.010385
      f+1     :     0.001795
      f-1     :     0.001086
      f+2     :     0.001481
      f-2     :     0.002065
      f+3     :     0.001432
      f-3     :     0.001036
  3 C s       :     2.993660  s :     2.993660
      pz      :     0.903891  p :     2.728339
      px      :     0.904350
      py      :     0.920098
      dz2     :     0.026455  d :     0.148382
      dxz     :     0.031385
      dyz     :     0.028994
      dx2y2   :     0.025562
      dxy     :     0.035985
      f0      :     0.001385  f :     0.013199
      f+1     :     0.002183
      f-1     :     0.001786
      f+2     :     0.001817
      f-2     :     0.002361
      f+3     :     0.001846
      f-3     :     0.001821
  4 C s       :     3.177124  s :     3.177124
      pz      :     0.964294  p :     2.901878
      px      :     0.973372
      py      :     0.964213
      dz2     :     0.028761  d :     0.121383
      dxz     :     0.026931
      dyz     :     0.014341
      dx2y2   :     0.023217
      dxy     :     0.028133
      f0      :     0.001505  f :     0.010713
      f+1     :     0.002056
      f-1     :     0.001192
      f+2     :     0.001125
      f-2     :     0.001573
      f+3     :     0.001890
      f-3     :     0.001372
  5 C s       :     3.045799  s :     3.045799
      pz      :     0.968371  p :     2.543847
      px      :     0.674949
      py      :     0.900527
      dz2     :     0.034679  d :     0.200937
      dxz     :     0.061302
      dyz     :     0.029501
      dx2y2   :     0.040736
      dxy     :     0.034719
      f0      :     0.003375  f :     0.022290
      f+1     :     0.002768
      f-1     :     0.001688
      f+2     :     0.003379
      f-2     :     0.002966
      f+3     :     0.004005
      f-3     :     0.004108
  6 O s       :     3.788235  s :     3.788235
      pz      :     1.529468  p :     4.654344
      px      :     1.296687
      py      :     1.828190
      dz2     :     0.013613  d :     0.063257
      dxz     :     0.016840
      dyz     :     0.009007
      dx2y2   :     0.012052
      dxy     :     0.011745
      f0      :     0.000463  f :     0.004587
      f+1     :     0.000883
      f-1     :     0.000513
      f+2     :     0.000656
      f-2     :     0.000561
      f+3     :     0.000787
      f-3     :     0.000725
  7 C s       :     3.190988  s :     3.190988
      pz      :     0.967285  p :     2.930649
      px      :     1.019086
      py      :     0.944277
      dz2     :     0.025804  d :     0.113666
      dxz     :     0.023945
      dyz     :     0.020794
      dx2y2   :     0.019475
      dxy     :     0.023648
      f0      :     0.001867  f :     0.014120
      f+1     :     0.001429
      f-1     :     0.002043
      f+2     :     0.002196
      f-2     :     0.002115
      f+3     :     0.002607
      f-3     :     0.001864
  8 C s       :     3.152560  s :     3.152560
      pz      :     0.905406  p :     2.856729
      px      :     0.926725
      py      :     1.024598
      dz2     :     0.018934  d :     0.132978
      dxz     :     0.037512
      dyz     :     0.025040
      dx2y2   :     0.026817
      dxy     :     0.024676
      f0      :     0.001646  f :     0.014232
      f+1     :     0.002901
      f-1     :     0.002095
      f+2     :     0.002190
      f-2     :     0.002130
      f+3     :     0.001480
      f-3     :     0.001791
  9 H s       :     0.636933  s :     0.636933
      pz      :     0.016918  p :     0.047957
      px      :     0.018711
      py      :     0.012329
 10 H s       :     0.904217  s :     0.904217
      pz      :     0.012677  p :     0.024597
      px      :     0.007042
      py      :     0.004878
 11 H s       :     0.881285  s :     0.881285
      pz      :     0.005275  p :     0.025303
      px      :     0.008404
      py      :     0.011624
 12 H s       :     0.885399  s :     0.885399
      pz      :     0.006814  p :     0.025184
      px      :     0.009002
      py      :     0.009367
 13 H s       :     0.861430  s :     0.861430
      pz      :     0.012206  p :     0.025838
      px      :     0.005534
      py      :     0.008098
 14 H s       :     0.888403  s :     0.888403
      pz      :     0.013278  p :     0.025408
      px      :     0.007430
      py      :     0.004700
 15 H s       :     0.872383  s :     0.872383
      pz      :     0.004563  p :     0.025463
      px      :     0.006384
      py      :     0.014516
 16 H s       :     0.624583  s :     0.624583
      pz      :     0.017553  p :     0.047071
      px      :     0.013726
      py      :     0.015792
 17 H s       :     0.831239  s :     0.831239
      pz      :     0.005344  p :     0.026655
      px      :     0.006319
      py      :     0.014992
 18 H s       :     0.848124  s :     0.848124
      pz      :     0.013136  p :     0.026894
      px      :     0.007925
      py      :     0.005833


                     *******************************
                     * LOEWDIN POPULATION ANALYSIS *
                     *******************************

----------------------
LOEWDIN ATOMIC CHARGES
----------------------
   0 O :   -0.042338
   1 C :   -0.280304
   2 C :   -0.200826
   3 C :   -0.170356
   4 C :   -0.157827
   5 C :   -0.292622
   6 O :    0.012863
   7 C :   -0.117748
   8 C :   -0.126701
   9 H :    0.167235
  10 H :    0.124230
  11 H :    0.128433
  12 H :    0.124784
  13 H :    0.129599
  14 H :    0.124429
  15 H :    0.123531
  16 H :    0.180553
  17 H :    0.125280
  18 H :    0.147786

-------------------------------
LOEWDIN REDUCED ORBITAL CHARGES
-------------------------------
  0 O s       :     3.358484  s :     3.358484
      pz      :     1.775320  p :     4.579204
      px      :     1.434145
      py      :     1.369739
      dz2     :     0.015193  d :     0.097528
      dxz     :     0.007154
      dyz     :     0.017398
      dx2y2   :     0.032560
      dxy     :     0.025224
      f0      :     0.000764  f :     0.007122
      f+1     :     0.000786
      f-1     :     0.000984
      f+2     :     0.000961
      f-2     :     0.000435
      f+3     :     0.001668
      f-3     :     0.001525
  1 C s       :     2.741074  s :     2.741074
      pz      :     0.985733  p :     2.778078
      px      :     1.003569
      py      :     0.788776
      dz2     :     0.111305  d :     0.667494
      dxz     :     0.107036
      dyz     :     0.150134
      dx2y2   :     0.160866
      dxy     :     0.138153
      f0      :     0.012877  f :     0.093658
      f+1     :     0.007664
      f-1     :     0.012607
      f+2     :     0.016092
      f-2     :     0.007601
      f+3     :     0.019837
      f-3     :     0.016980
  2 C s       :     2.775202  s :     2.775202
      pz      :     0.989951  p :     2.971144
      px      :     0.976561
      py      :     1.004632
      dz2     :     0.087960  d :     0.410148
      dxz     :     0.100270
      dyz     :     0.067892
      dx2y2   :     0.038558
      dxy     :     0.115468
      f0      :     0.007905  f :     0.044332
      f+1     :     0.008038
      f-1     :     0.004171
      f+2     :     0.007744
      f-2     :     0.006500
      f+3     :     0.005862
      f-3     :     0.004112
  3 C s       :     2.722558  s :     2.722558
      pz      :     0.962985  p :     2.864768
      px      :     0.943705
      py      :     0.958078
      dz2     :     0.085610  d :     0.520915
      dxz     :     0.116460
      dyz     :     0.107624
      dx2y2   :     0.093141
      dxy     :     0.118080
      f0      :     0.006397  f :     0.062116
      f+1     :     0.012351
      f-1     :     0.007247
      f+2     :     0.007608
      f-2     :     0.009257
      f+3     :     0.009475
      f-3     :     0.009781
  4 C s       :     2.769493  s :     2.769493
      pz      :     0.974861  p :     2.936278
      px      :     0.976130
      py      :     0.985286
      dz2     :     0.097161  d :     0.406163
      dxz     :     0.088293
      dyz     :     0.051451
      dx2y2   :     0.080195
      dxy     :     0.089062
      f0      :     0.006405  f :     0.045894
      f+1     :     0.006897
      f-1     :     0.005730
      f+2     :     0.005933
      f-2     :     0.008560
      f+3     :     0.007198
      f-3     :     0.005172
  5 C s       :     2.664303  s :     2.664303
      pz      :     0.965286  p :     2.710446
      px      :     0.821160
      py      :     0.924001
      dz2     :     0.142580  d :     0.801058
      dxz     :     0.195919
      dyz     :     0.104506
      dx2y2   :     0.172863
      dxy     :     0.185190
      f0      :     0.019402  f :     0.116815
      f+1     :     0.015276
      f-1     :     0.007473
      f+2     :     0.018171
      f-2     :     0.015186
      f+3     :     0.018385
      f-3     :     0.022920
  6 O s       :     3.335483  s :     3.335483
      pz      :     1.504976  p :     4.542297
      px      :     1.316618
      py      :     1.720703
      dz2     :     0.016566  d :     0.101784
      dxz     :     0.034049
      dyz     :     0.008913
      dx2y2   :     0.021954
      dxy     :     0.020303
      f0      :     0.000845  f :     0.007573
      f+1     :     0.001690
      f-1     :     0.000618
      f+2     :     0.000969
      f-2     :     0.000919
      f+3     :     0.001380
      f-3     :     0.001152
  7 C s       :     2.722219  s :     2.722219
      pz      :     0.950744  p :     2.855803
      px      :     0.956520
      py      :     0.948538
      dz2     :     0.100498  d :     0.475423
      dxz     :     0.080916
      dyz     :     0.096727
      dx2y2   :     0.113306
      dxy     :     0.083976
      f0      :     0.009543  f :     0.064303
      f+1     :     0.005703
      f-1     :     0.009331
      f+2     :     0.009690
      f-2     :     0.012771
      f+3     :     0.008625
      f-3     :     0.008641
  8 C s       :     2.708110  s :     2.708110
      pz      :     0.925474  p :     2.857635
      px      :     0.956792
      py      :     0.975369
      dz2     :     0.094348  d :     0.498253
      dxz     :     0.147913
      dyz     :     0.080102
      dx2y2   :     0.093782
      dxy     :     0.082108
      f0      :     0.007629  f :     0.062703
      f+1     :     0.011973
      f-1     :     0.009870
      f+2     :     0.010231
      f-2     :     0.010661
      f+3     :     0.006054
      f-3     :     0.006285
  9 H s       :     0.670493  s :     0.670493
      pz      :     0.047545  p :     0.162272
      px      :     0.081597
      py      :     0.033130
 10 H s       :     0.815173  s :     0.815173
      pz      :     0.029675  p :     0.060596
      px      :     0.017882
      py      :     0.013040
 11 H s       :     0.808319  s :     0.808319
      pz      :     0.014376  p :     0.063248
      px      :     0.019858
      py      :     0.029014
 12 H s       :     0.811759  s :     0.811759
      pz      :     0.017740  p :     0.063457
      px      :     0.021304
      py      :     0.024414
 13 H s       :     0.806735  s :     0.806735
      pz      :     0.029005  p :     0.063666
      px      :     0.014256
      py      :     0.020405
 14 H s       :     0.812094  s :     0.812094
      pz      :     0.030325  p :     0.063477
      px      :     0.019703
      py      :     0.013449
 15 H s       :     0.810933  s :     0.810933
      pz      :     0.012736  p :     0.065535
      px      :     0.017172
      py      :     0.035627
 16 H s       :     0.660261  s :     0.660261
      pz      :     0.073005  p :     0.159186
      px      :     0.039522
      py      :     0.046659
 17 H s       :     0.806196  s :     0.806196
      pz      :     0.014390  p :     0.068524
      px      :     0.017269
      py      :     0.036864
 18 H s       :     0.786357  s :     0.786357
      pz      :     0.029500  p :     0.065857
      px      :     0.020105
      py      :     0.016253


                      *****************************
                      * MAYER POPULATION ANALYSIS *
                      *****************************

  NA   - Mulliken gross atomic population
  ZA   - Total nuclear charge
  QA   - Mulliken gross atomic charge
  VA   - Mayer's total valence
  BVA  - Mayer's bonded valence
  FA   - Mayer's free valence

  ATOM       NA         ZA         QA         VA         BVA        FA
  0 O      8.5237     8.0000    -0.5237     2.1698     1.7617     0.4081
  1 C      5.8052     6.0000     0.1948     3.9975     3.6710     0.3266
  2 C      6.3129     6.0000    -0.3129     4.1635     3.8324     0.3312
  3 C      5.8836     6.0000     0.1164     3.7783     3.4389     0.3393
  4 C      6.2111     6.0000    -0.2111     4.1394     3.8078     0.3317
  5 C      5.8129     6.0000     0.1871     4.0307     3.6748     0.3559
  6 O      8.5104     8.0000    -0.5104     2.1585     1.7554     0.4031
  7 C      6.2494     6.0000    -0.2494     3.9220     3.5485     0.3735
  8 C      6.1565     6.0000    -0.1565     3.9265     3.5735     0.3531
  9 H      0.6849     1.0000     0.3151     0.9212     0.8688     0.0524
 10 H      0.9288     1.0000     0.0712     0.9750     0.9224     0.0526
 11 H      0.9066     1.0000     0.0934     0.9858     0.9336     0.0522
 12 H      0.9106     1.0000     0.0894     0.9928     0.9406     0.0522
 13 H      0.8873     1.0000     0.1127     0.9625     0.9121     0.0504
 14 H      0.9138     1.0000     0.0862     0.9868     0.9347     0.0521
 15 H      0.8978     1.0000     0.1022     0.9991     0.9472     0.0519
 16 H      0.6717     1.0000     0.3283     0.9076     0.8561     0.0516
 17 H      0.8579     1.0000     0.1421     0.9709     0.9215     0.0494
 18 H      0.8750     1.0000     0.1250     0.9896     0.9403     0.0492

  Mayer bond orders larger than 0.1
B(  0-O ,  1-C ) :   0.9723 B(  0-O ,  9-H ) :   0.8503 B(  1-C ,  2-C ) :   0.9383 
B(  1-C ,  8-C ) :   0.8710 B(  1-C , 10-H ) :   0.9614 B(  2-C ,  3-C ) :   0.8706 
B(  2-C , 11-H ) :   0.9398 B(  2-C , 12-H ) :   0.9416 B(  3-C ,  4-C ) :   0.9199 
B(  3-C ,  7-C ) :   0.8469 B(  3-C , 13-H ) :   0.9256 B(  4-C ,  5-C ) :   0.9766 
B(  4-C , 14-H ) :   0.9372 B(  4-C , 15-H ) :   0.9161 B(  5-C ,  6-O ) :   0.9625 
B(  5-C ,  7-C ) :   0.8362 B(  5-C ,  8-C ) :   0.9057 B(  6-O , 16-H ) :   0.8391 
B(  7-C ,  8-C ) :   0.9253 B(  7-C , 17-H ) :   0.9073 B(  8-C , 18-H ) :   0.9312 



                *******************************************
                * RELAXED MP2 DENSITY POPULATION ANALYSIS *
                *******************************************

------------------------------------------------------------------------------
                           ORCA POPULATION ANALYSIS
------------------------------------------------------------------------------
[...]
      f+1     :     0.001688
      f-1     :     0.001007
      f+2     :     0.001415
      f-2     :     0.001908
      f+3     :     0.001383
      f-3     :     0.001014
  3 C s       :     3.078081  s :     3.078081
      pz      :     0.915855  p :     2.751539
      px      :     0.900494
      py      :     0.935191
      dz2     :     0.027042  d :     0.138427
      dxz     :     0.027868
      dyz     :     0.026043
      dx2y2   :     0.025072
      dxy     :     0.032401
      f0      :     0.001337  f :     0.012594
      f+1     :     0.002157
      f-1     :     0.001689
      f+2     :     0.001728
      f-2     :     0.002177
      f+3     :     0.001707
      f-3     :     0.001797
  4 C s       :     3.169681  s :     3.169681
      pz      :     0.972640  p :     2.918357
      px      :     0.975998
      py      :     0.969719
      dz2     :     0.025762  d :     0.109346
      dxz     :     0.022279
      dyz     :     0.014918
      dx2y2   :     0.022484
      dxy     :     0.023903
      f0      :     0.001513  f :     0.010178
      f+1     :     0.001840
      f-1     :     0.001148
      f+2     :     0.001093
      f-2     :     0.001527
      f+3     :     0.001719
      f-3     :     0.001338
  5 C s       :     3.062901  s :     3.062901
      pz      :     0.979267  p :     2.597764
      px      :     0.699916
      py      :     0.918581
      dz2     :     0.033438  d :     0.190728
      dxz     :     0.056860
      dyz     :     0.029837
      dx2y2   :     0.037449
      dxy     :     0.033145
      f0      :     0.003388  f :     0.021486
      f+1     :     0.002475
      f-1     :     0.001575
      f+2     :     0.003358
      f-2     :     0.002809
      f+3     :     0.003841
      f-3     :     0.004040
  6 O s       :     3.781364  s :     3.781364
      pz      :     1.504300  p :     4.596576
      px      :     1.292877
      py      :     1.799399
      dz2     :     0.012712  d :     0.060912
      dxz     :     0.016105
      dyz     :     0.008973
      dx2y2   :     0.011518
      dxy     :     0.011604
      f0      :     0.000458  f :     0.004515
      f+1     :     0.000848
      f-1     :     0.000506
      f+2     :     0.000652
      f-2     :     0.000552
      f+3     :     0.000780
      f-3     :     0.000720
  7 C s       :     3.192330  s :     3.192330
      pz      :     0.967838  p :     2.919734
      px      :     1.019216
      py      :     0.932680
      dz2     :     0.023691  d :     0.104402
      dxz     :     0.020796
      dyz     :     0.020617
      dx2y2   :     0.019148
      dxy     :     0.020150
      f0      :     0.001844  f :     0.013585
      f+1     :     0.001358
      f-1     :     0.001906
      f+2     :     0.002125
      f-2     :     0.002034
      f+3     :     0.002456
      f-3     :     0.001863
  8 C s       :     3.167270  s :     3.167270
      pz      :     0.889113  p :     2.841762
      px      :     0.918477
      py      :     1.034172
      dz2     :     0.017451  d :     0.122621
      dxz     :     0.036372
      dyz     :     0.021429
      dx2y2   :     0.024860
      dxy     :     0.022510
      f0      :     0.001704  f :     0.013601
      f+1     :     0.002665
      f-1     :     0.001990
      f+2     :     0.002099
      f-2     :     0.002033
      f+3     :     0.001496
      f-3     :     0.001613
  9 H s       :     0.641388  s :     0.641388
      pz      :     0.018167  p :     0.048693
      px      :     0.017964
      py      :     0.012562
 10 H s       :     0.889058  s :     0.889058
      pz      :     0.011682  p :     0.023513
      px      :     0.006921
      py      :     0.004909
 11 H s       :     0.864001  s :     0.864001
      pz      :     0.005453  p :     0.024339
      px      :     0.008120
      py      :     0.010766
 12 H s       :     0.867156  s :     0.867156
      pz      :     0.006810  p :     0.024306
      px      :     0.008656
      py      :     0.008840
 13 H s       :     0.854228  s :     0.854228
      pz      :     0.011369  p :     0.024904
      px      :     0.005664
      py      :     0.007870
 14 H s       :     0.872059  s :     0.872059
      pz      :     0.012303  p :     0.024541
      px      :     0.007307
      py      :     0.004931
 15 H s       :     0.863128  s :     0.863128
      pz      :     0.004830  p :     0.024548
      px      :     0.006367
      py      :     0.013352
 16 H s       :     0.629926  s :     0.629926
      pz      :     0.017287  p :     0.047745
      px      :     0.013710
      py      :     0.016749
 17 H s       :     0.829014  s :     0.829014
      pz      :     0.005624  p :     0.025870
      px      :     0.006427
      py      :     0.013820
 18 H s       :     0.840951  s :     0.840951
      pz      :     0.012150  p :     0.025883
      px      :     0.007631
      py      :     0.006103


                     *******************************
                     * LOEWDIN POPULATION ANALYSIS *
                     *******************************

----------------------
LOEWDIN ATOMIC CHARGES
----------------------
   0 O :   -0.020492
   1 C :   -0.308324
   2 C :   -0.220913
   3 C :   -0.183198
   4 C :   -0.175865
   5 C :   -0.316990
   6 O :    0.036788
   7 C :   -0.126611
   8 C :   -0.138773
   9 H :    0.170200
  10 H :    0.132612
  11 H :    0.138505
  12 H :    0.134367
  13 H :    0.139183
  14 H :    0.134344
  15 H :    0.130827
  16 H :    0.183388
  17 H :    0.133850
  18 H :    0.157102

-------------------------------
LOEWDIN REDUCED ORBITAL CHARGES
-------------------------------
  0 O s       :     3.362954  s :     3.362954
      pz      :     1.760399  p :     4.553139
      px      :     1.430118
      py      :     1.362622
      dz2     :     0.015174  d :     0.097183
      dxz     :     0.007234
      dyz     :     0.017945
      dx2y2   :     0.031448
      dxy     :     0.025381
      f0      :     0.000773  f :     0.007216
      f+1     :     0.000792
      f-1     :     0.001009
      f+2     :     0.000977
      f-2     :     0.000433
      f+3     :     0.001664
      f-3     :     0.001568
  1 C s       :     2.748893  s :     2.748893
      pz      :     0.993888  p :     2.800768
      px      :     1.006180
      py      :     0.800700
      dz2     :     0.109826  d :     0.666452
      dxz     :     0.104965
      dyz     :     0.153206
      dx2y2   :     0.159554
      dxy     :     0.138901
      f0      :     0.012661  f :     0.092211
      f+1     :     0.007420
      f-1     :     0.012431
      f+2     :     0.015759
      f-2     :     0.007552
      f+3     :     0.019527
      f-3     :     0.016862
  2 C s       :     2.782773  s :     2.782773
      pz      :     0.995522  p :     2.994360
      px      :     0.981643
      py      :     1.017194
      dz2     :     0.087100  d :     0.399766
      dxz     :     0.097019
      dyz     :     0.066090
      dx2y2   :     0.038413
      dxy     :     0.111144
      f0      :     0.007893  f :     0.044013
      f+1     :     0.008065
      f-1     :     0.004102
      f+2     :     0.007778
      f-2     :     0.006336
      f+3     :     0.005768
      f-3     :     0.004071
  3 C s       :     2.729643  s :     2.729643
      pz      :     0.969260  p :     2.877447
      px      :     0.943717
      py      :     0.964470
      dz2     :     0.085545  d :     0.514167
      dxz     :     0.114003
      dyz     :     0.104922
      dx2y2   :     0.093549
      dxy     :     0.116148
      f0      :     0.006337  f :     0.061940
      f+1     :     0.012508
      f-1     :     0.007122
      f+2     :     0.007613
      f-2     :     0.009103
      f+3     :     0.009404
      f-3     :     0.009853
  4 C s       :     2.777323  s :     2.777323
      pz      :     0.982854  p :     2.958497
      px      :     0.983238
      py      :     0.992406
      dz2     :     0.094099  d :     0.394717
      dxz     :     0.083701
      dyz     :     0.052645
      dx2y2   :     0.079983
      dxy     :     0.084289
      f0      :     0.006331  f :     0.045328
      f+1     :     0.006683
      f-1     :     0.005750
      f+2     :     0.005845
      f-2     :     0.008573
      f+3     :     0.007010
      f-3     :     0.005137
  5 C s       :     2.671940  s :     2.671940
      pz      :     0.966089  p :     2.725419
      px      :     0.825802
      py      :     0.933527
      dz2     :     0.142748  d :     0.805785
      dxz     :     0.196961
      dyz     :     0.104622
      dx2y2   :     0.171546
      dxy     :     0.189907
      f0      :     0.019208  f :     0.113846
      f+1     :     0.014918
      f-1     :     0.007397
      f+2     :     0.017811
      f-2     :     0.014617
      f+3     :     0.017629
      f-3     :     0.022267
  6 O s       :     3.339298  s :     3.339298
      pz      :     1.497442  p :     4.515186
      px      :     1.315670
      py      :     1.702073
      dz2     :     0.016146  d :     0.101076
      dxz     :     0.033636
      dyz     :     0.009008
      dx2y2   :     0.021748
      dxy     :     0.020537
      f0      :     0.000843  f :     0.007651
      f+1     :     0.001705
      f-1     :     0.000619
      f+2     :     0.000976
      f-2     :     0.000922
      f+3     :     0.001400
      f-3     :     0.001186
  7 C s       :     2.730895  s :     2.730895
      pz      :     0.951510  p :     2.862281
      px      :     0.960230
      py      :     0.950542
      dz2     :     0.099241  d :     0.469547
      dxz     :     0.078692
      dyz     :     0.097814
      dx2y2   :     0.111852
      dxy     :     0.081948
      f0      :     0.009418  f :     0.063888
      f+1     :     0.005646
      f-1     :     0.009377
      f+2     :     0.009499
      f-2     :     0.012738
      f+3     :     0.008643
      f-3     :     0.008566
  8 C s       :     2.716124  s :     2.716124
      pz      :     0.927911  p :     2.869970
      px      :     0.959711
      py      :     0.982348
      dz2     :     0.093552  d :     0.490604
      dxz     :     0.145959
      dyz     :     0.078178
      dx2y2   :     0.092081
      dxy     :     0.080834
      f0      :     0.007813  f :     0.062074
      f+1     :     0.011559
      f-1     :     0.009829
      f+2     :     0.010154
      f-2     :     0.010465
      f+3     :     0.006142
      f-3     :     0.006112
  9 H s       :     0.666429  s :     0.666429
      pz      :     0.048558  p :     0.163372
      px      :     0.081700
      py      :     0.033114
 10 H s       :     0.805302  s :     0.805302
      pz      :     0.029851  p :     0.062086
      px      :     0.018386
      py      :     0.013850
 11 H s       :     0.796822  s :     0.796822
      pz      :     0.015036  p :     0.064673
      px      :     0.020310
      py      :     0.029327
 12 H s       :     0.800729  s :     0.800729
      pz      :     0.018349  p :     0.064904
      px      :     0.021810
      py      :     0.024745
 13 H s       :     0.795757  s :     0.795757
      pz      :     0.029311  p :     0.065059
      px      :     0.014873
      py      :     0.020875
 14 H s       :     0.800771  s :     0.800771
      pz      :     0.030636  p :     0.064885
      px      :     0.020225
      py      :     0.014024
 15 H s       :     0.802345  s :     0.802345
      pz      :     0.013393  p :     0.066828
      px      :     0.017713
      py      :     0.035721
 16 H s       :     0.656585  s :     0.656585
      pz      :     0.073272  p :     0.160027
      px      :     0.039410
      py      :     0.047345
 17 H s       :     0.796256  s :     0.796256
      pz      :     0.014998  p :     0.069894
      px      :     0.017861
      py      :     0.037035
 18 H s       :     0.775859  s :     0.775859
      pz      :     0.029622  p :     0.067039
      px      :     0.020499
      py      :     0.016918


                      *****************************
                      * MAYER POPULATION ANALYSIS *
                      *****************************

  NA   - Mulliken gross atomic population
  ZA   - Total nuclear charge
  QA   - Mulliken gross atomic charge
  VA   - Mayer's total valence
  BVA  - Mayer's bonded valence
  FA   - Mayer's free valence

  ATOM       NA         ZA         QA         VA         BVA        FA
  0 O      8.4577     8.0000    -0.4577     2.2473     1.8476     0.3997
  1 C      5.9183     6.0000     0.0817     4.1213     3.8011     0.3202
  2 C      6.2990     6.0000    -0.2990     4.0811     3.7551     0.3261
  3 C      5.9806     6.0000     0.0194     3.8949     3.5603     0.3346
  4 C      6.2076     6.0000    -0.2076     4.0675     3.7400     0.3276
  5 C      5.8729     6.0000     0.1271     4.1525     3.8066     0.3459
  6 O      8.4434     8.0000    -0.4434     2.2559     1.8614     0.3946
  7 C      6.2301     6.0000    -0.2301     3.8384     3.4706     0.3677
  8 C      6.1453     6.0000    -0.1453     3.8596     3.5129     0.3467
  9 H      0.6901     1.0000     0.3099     0.9236     0.8713     0.0523
 10 H      0.9126     1.0000     0.0874     0.9626     0.9112     0.0514
 11 H      0.8883     1.0000     0.1117     0.9788     0.9280     0.0509
 12 H      0.8915     1.0000     0.1085     0.9886     0.9378     0.0508
 13 H      0.8791     1.0000     0.1209     0.9596     0.9101     0.0496
 14 H      0.8966     1.0000     0.1034     0.9792     0.9282     0.0510
 15 H      0.8877     1.0000     0.1123     1.0024     0.9520     0.0504
 16 H      0.6777     1.0000     0.3223     0.9118     0.8604     0.0514
 17 H      0.8549     1.0000     0.1451     0.9676     0.9189     0.0487
 18 H      0.8668     1.0000     0.1332     0.9889     0.9408     0.0481

  Mayer bond orders larger than 0.1
B(  0-O ,  1-C ) :   1.0657 B(  0-O ,  9-H ) :   0.8471 B(  1-C ,  2-C ) :   0.9454 
B(  1-C ,  8-C ) :   0.8859 B(  1-C , 10-H ) :   0.9447 B(  2-C ,  3-C ) :   0.9047 
B(  2-C , 11-H ) :   0.9166 B(  2-C , 12-H ) :   0.9205 B(  3-C ,  4-C ) :   0.9375 
B(  3-C ,  7-C ) :   0.8606 B(  3-C , 13-H ) :   0.9170 B(  4-C ,  5-C ) :   1.0005 
B(  4-C , 14-H ) :   0.9170 B(  4-C , 15-H ) :   0.8977 B(  5-C ,  6-O ) :   1.0814 
B(  5-C ,  7-C ) :   0.8048 B(  5-C ,  8-C ) :   0.8895 B(  6-O , 16-H ) :   0.8357 
B(  7-C ,  8-C ) :   0.9003 B(  7-C , 17-H ) :   0.9008 B(  8-C , 18-H ) :   0.9222 



-------
TIMINGS
-------

Total time                :  922.246 sec
Integral trafo            :    8.041 sec (  0.9%)
FC preparation            :    7.050 sec (  0.8%)
I/O of integrals          :    0.052 sec (  0.0%)
K(i,j) Operators          :    9.273 sec (  1.0%)
T(i,j) pair energies      :    0.820 sec (  0.1%)
V-calculation             :    0.018 sec (  0.0%)
V**(-1/2)                 :    0.116 sec (  0.0%)
Gamma(ia|P)               :    9.246 sec (  1.0%)
Gamma-Trafo               :    1.476 sec (  0.2%)
D(virtual)                :    3.526 sec (  0.4%)
D(internal)               :    3.144 sec (  0.3%)
W(virtual)                :    0.000 sec (  0.0%)
W(internal)               :    0.000 sec (  0.0%)
L(virtual)                :   11.015 sec (  1.2%)
L(internal)               :    0.193 sec (  0.0%)
G(D)                      :  122.038 sec ( 13.2%)
G(Z)                      :    0.000 sec (  0.0%)
Z-Vector Solution         :  745.514 sec ( 80.8%)
3-Index Derivative        :    0.000 sec (  0.0%)
2-Index Derivative        :    0.000 sec (  0.0%)
Separable Gradient (RIJ)  :    0.000 sec (  0.0%)
Separable Gradient (X)    :    0.000 sec (  0.0%)


---------------------------------------
MP2 TOTAL ENERGY:     -422.304563364 Eh
---------------------------------------

-------------------------   --------------------
FINAL SINGLE POINT ENERGY      -422.304563364296
-------------------------   --------------------


                            ***************************************
                            *     ORCA property calculations      *
                            ***************************************

                                    ---------------------
                                    Active property flags
                                    ---------------------
   (+) Dipole Moment


------------------------------------------------------------------------------
                       ORCA ELECTRIC PROPERTIES CALCULATION
------------------------------------------------------------------------------

Dipole Moment Calculation                       ... on
Quadrupole Moment Calculation                   ... off
Polarizability Calculation                      ... off
GBWName                                         ... dsgdb9nsd_092113.gbw
Electron density file                           ... dsgdb9nsd_092113.scfp.tmp

-------------
DIPOLE MOMENT
-------------
                                X             Y             Z
Electronic contribution:     -3.19052       0.97316      -1.65548
Nuclear contribution   :      3.86621      -1.61102       2.20367
                        -----------------------------------------
Total Dipole Moment    :      0.67569      -0.63786       0.54818
                        -----------------------------------------
Magnitude (a.u.)       :      1.07886
Magnitude (Debye)      :      2.74223


                         *** MP2 UNRELAXED DENSITY ***

------------------------------------------------------------------------------
                       ORCA ELECTRIC PROPERTIES CALCULATION
------------------------------------------------------------------------------

Dipole Moment Calculation                       ... on
Quadrupole Moment Calculation                   ... off
Polarizability Calculation                      ... off
GBWName                                         ... dsgdb9nsd_092113.gbw
Electron density file                           ... dsgdb9nsd_092113.pmp2ur

-------------
DIPOLE MOMENT
-------------
                                X             Y             Z
Electronic contribution:     -3.21321       0.99571      -1.66824
Nuclear contribution   :      3.86621      -1.61102       2.20367
                        -----------------------------------------
Total Dipole Moment    :      0.65300      -0.61531       0.53543
                        -----------------------------------------
Magnitude (a.u.)       :      1.04484
Magnitude (Debye)      :      2.65578


                           *** MP2 RELAXED DENSITY ***

------------------------------------------------------------------------------
                       ORCA ELECTRIC PROPERTIES CALCULATION
------------------------------------------------------------------------------

Dipole Moment Calculation                       ... on
Quadrupole Moment Calculation                   ... off
Polarizability Calculation                      ... off
GBWName                                         ... dsgdb9nsd_092113.gbw
Electron density file                           ... dsgdb9nsd_092113.pmp2re

-------------
DIPOLE MOMENT
-------------
                                X             Y             Z
Electronic contribution:     -3.26221       1.03976      -1.68734
Nuclear contribution   :      3.86621      -1.61102       2.20367
                        -----------------------------------------
Total Dipole Moment    :      0.60401      -0.57126       0.51633
                        -----------------------------------------
Magnitude (a.u.)       :      0.97865
Magnitude (Debye)      :      2.48753


Timings for individual modules:

Sum of individual times         ...     1065.958 sec (=  17.766 min)
GTO integral calculation        ...        0.539 sec (=   0.009 min)   0.1 %
SCF iterations                  ...      143.023 sec (=   2.384 min)  13.4 %
MP2 module                      ...      922.396 sec (=  15.373 min)  86.5 %
                             ****ORCA TERMINATED NORMALLY****
TOTAL RUN TIME: 0 days 0 hours 17 minutes 46 seconds 440 msec
