
                                 *****************
                                 * O   R   C   A *
                                 *****************

           --- An Ab Initio, DFT and Semiempirical electronic structure package ---

                  #######################################################
                  #                        -***-                        #
                  #  Department of molecular theory and spectroscopy    #
                  #              Directorship: Frank Neese              #
                  # Max Planck Institute for Chemical Energy Conversion #
                  #                  D-45470 Muelheim/Ruhr              #
                  #                       Germany                       #
                  #                                                     #
                  #                  All rights reserved                #
                  #                        -***-                        #
                  #######################################################


                         Program Version 3.0.3 - RELEASE   -


 With contributions from (in alphabetic order):
   Ute Becker             : Parallelization
   Dmytro Bykov           : SCF Hessian
   Dmitry Ganyushin       : Spin-Orbit,Spin-Spin,Magnetic field MRCI
   Andreas Hansen         : Spin unrestricted coupled pair/coupled cluster methods
   Dimitrios Liakos       : Extrapolation schemes; parallel MDCI
   Robert Izsak           : Overlap fitted RIJCOSX, COSX-SCS-MP3
   Christian Kollmar      : KDIIS, OOCD, Brueckner-CCSD(T), CCSD density
   Simone Kossmann        : Meta GGA functionals, TD-DFT gradient, OOMP2, MP2 Hessian
   Taras Petrenko         : DFT Hessian,TD-DFT gradient, ASA and ECA modules, normal mode analysis, Resonance Raman, ABS, FL, XAS/XES, NRVS
   Christoph Reimann      : Effective Core Potentials
   Michael Roemelt        : Restricted open shell CIS
   Christoph Riplinger    : Improved optimizer, TS searches, QM/MM, DLPNO-CCSD
   Barbara Sandhoefer     : DKH picture change effects
   Igor Schapiro          : Molecular dynamics
   Kantharuban Sivalingam : CASSCF convergence, NEVPT2
   Boris Wezisla          : Elementary symmetry handling
   Frank Wennmohs         : Technical directorship


 We gratefully acknowledge several colleagues who have allowed us to
 interface, adapt or use parts of their codes:
   Stefan Grimme, W. Hujo, H. Kruse, T. Risthaus : VdW corrections, initial TS optimization,
                                                   DFT functionals, gCP
   Ed Valeev                                     : LibInt (2-el integral package), F12 methods
   Garnet Chan, S. Sharma, R. Olivares           : DMRG
   Ulf Ekstrom                                   : XCFun DFT Library
   Mihaly Kallay                                 : mrcc  (arbitrary order and MRCC methods)
   Andreas Klamt, Michael Diedenhofen            : otool_cosmo (COSMO solvation model)
   Frank Weinhold                                : gennbo (NPA and NBO analysis)
   Christopher J. Cramer and Donald G. Truhlar   : smd solvation model


 Your calculation uses the libint2 library for the computation of 2-el integrals
 For citations please refer to: http://libint.valeyev.net

 This ORCA versions uses:
   CBLAS   interface :  Fast vector & matrix operations
   LAPACKE interface :  Fast linear algebra routines
   SCALAPACK package :  Parallel linear algebra routines


Your calculation utilizes the basis: Ahlrichs-TZV
Cite in your paper:
H - Kr: A. Schaefer, H. Horn and R. Ahlrichs, J. Chem. Phys. 97, 2571 (1992).

The def2-TZV basis will be loaded
Cite in your paper:
 	F. Weigend, R. Ahlrichs, Phys. Chem. Chem. Phys. 2005, 7, 3297.

================================================================================
                                        WARNINGS
                       Please study these warnings very carefully!
================================================================================
Now building the actual basis set


INFO   : the flag for use of LIBINT has been found!

================================================================================
                                       INPUT FILE
================================================================================
NAME = dsgdb9nsd_073539.inp
|  1> ! RI-MP2 RIJK def2-TZVP def2-TZVP/C def2-TZVP/JK TIGHTSCF
|  2> % maxcore 2000
|  3> % mp2 density relaxed end
|  4> *xyz 0 1
|  5>  C       -0.1429358297     1.5521490118    -0.1093639992 
|  6>  C       -0.0329964884     0.0290090432    -0.0383639934 
|  7>  C       -1.4111692318    -0.5828949256     0.2551290115 
|  8>  O       -1.4128444959    -0.8697020023     1.6806642927 
|  9>  C       -0.1083826383    -0.7135978627     2.2792298182 
| 10>  C        0.7907751715    -0.6844384051     1.0771268883 
| 11>  C        2.0939646275    -0.1305235236     0.4343152558 
| 12>  C        1.1952645869    -0.6608502574    -0.7529149243 
| 13>  C        0.9559412492    -1.9123668004     0.1202231137 
| 14>  H        0.8151764188     2.0632027920    -0.2177516072 
| 15>  H       -0.7536923356     1.8299317324    -0.9763458320 
| 16>  H       -0.6446566973     1.9563859341     0.7773439428 
| 17>  H       -2.2209378719     0.1279097147     0.0612008776 
| 18>  H       -1.6396803704    -1.5028905874    -0.2926362672 
| 19>  H       -0.0632573433     0.2175513157     2.8628712678 
| 20>  H        0.0537284852    -1.5592403666     2.9557912929 
| 21>  H        2.2845675194     0.9392058561     0.5022263302 
| 22>  H        3.0069785780    -0.7008147692     0.6220031399 
| 23>  H        1.4517804124    -0.6330009851    -1.8141651385 
| 24>  H        1.8312215480    -2.5380528129     0.3110467907 
| 25>  H        0.0811116658    -2.5249646618    -0.0889733702 
| 26> *
| 27> 
| 28>                          ****END OF INPUT****
================================================================================

                       ****************************
                       * Single Point Calculation *
                       ****************************

---------------------------------
CARTESIAN COORDINATES (ANGSTROEM)
---------------------------------
  C     -0.142936    1.552149   -0.109364
  C     -0.032996    0.029009   -0.038364
  C     -1.411169   -0.582895    0.255129
  O     -1.412844   -0.869702    1.680664
  C     -0.108383   -0.713598    2.279230
  C      0.790775   -0.684438    1.077127
  C      2.093965   -0.130524    0.434315
  C      1.195265   -0.660850   -0.752915
  C      0.955941   -1.912367    0.120223
  H      0.815176    2.063203   -0.217752
  H     -0.753692    1.829932   -0.976346
  H     -0.644657    1.956386    0.777344
  H     -2.220938    0.127910    0.061201
  H     -1.639680   -1.502891   -0.292636
  H     -0.063257    0.217551    2.862871
  H      0.053728   -1.559240    2.955791
  H      2.284568    0.939206    0.502226
  H      3.006979   -0.700815    0.622003
  H      1.451780   -0.633001   -1.814165
  H      1.831222   -2.538053    0.311047
  H      0.081112   -2.524965   -0.088973

----------------------------
CARTESIAN COORDINATES (A.U.)
----------------------------
  NO LB      ZA    FRAG    MASS        X           Y           Z
   0 C     6.0000    0    12.011         -0.270109572857807          2.933136551338505         -0.206668007398383
   1 C     6.0000    0    12.011         -0.062354326457109          0.054819147055091         -0.072497440929562
   2 C     6.0000    0    12.011         -2.666723376718036         -1.101511774236404          0.482123960553046
   3 O     8.0000    0    15.999         -2.669889167069027         -1.643498602469951          3.175995236263466
   4 C     6.0000    0    12.011         -0.204813504058844         -1.348504530254539          4.307120152665123
   5 C     6.0000    0    12.011          1.494348507639610         -1.293401141176850          2.035474830369787
   6 C     6.0000    0    12.011          3.957019680093429         -0.246653713638407          0.820736889245954
   7 C     6.0000    0    12.011          2.258722726815519         -1.248826002017366         -1.422803009069051
   8 C     6.0000    0    12.011          1.806467161106568         -3.613849520359246          0.227188759860276
   9 H     1.0000    0     1.008          1.540460182362695          3.898888235621692         -0.411490902829195
  10 H     1.0000    0     1.008         -1.424272103519467          3.458069818008070         -1.845026234475488
  11 H     1.0000    0     1.008         -1.218224608295172          3.697033627704710          1.468967163754547
  12 H     1.0000    0     1.008         -4.196964338344879          0.241714330651001          0.115652897819636
  13 H     1.0000    0     1.008         -3.098546847222558         -2.840051619434041         -0.553002401861002
  14 H     1.0000    0     1.008         -0.119539054796438          0.411112406747243          5.410042652813926
  15 H     1.0000    0     1.008          0.101532122618441         -2.946537269828973          5.585636052610015
  16 H     1.0000    0     1.008          4.317206946117826          1.774841851404052          0.949070221322304
  17 H     1.0000    0     1.008          5.682366002987963         -1.324347984395230          1.175415588850106
  18 H     1.0000    0     1.008          2.743467386027252         -1.196198504341367         -3.428275273472317
  19 H     1.0000    0     1.008          3.460507216255330         -4.796224729809476          0.587793249258124
  20 H     1.0000    0     1.008          0.153278834628147         -4.771491708631094         -0.168135302889990

--------------------------------
INTERNAL COORDINATES (ANGSTROEM)
--------------------------------
 C      0   0   0   0.000000     0.000     0.000
 C      1   0   0   1.528752     0.000     0.000
 C      2   1   0   1.536205   109.951     0.000
 O      3   2   1   1.454102   105.480   260.411
 C      4   3   2   1.443700   112.587   350.260
 C      5   4   3   1.501461   102.196   344.720
 C      6   5   4   1.555098   147.109   147.354
 C      2   1   3   1.579593   118.037   158.218
 C      8   2   1   1.544649    88.720   160.705
 H      1   2   3   1.091285   114.083   174.302
 H      1   2   3   1.096287   109.223   293.938
 H      1   2   3   1.096076   111.272    51.766
 H      3   2   1   1.094795   111.784    16.955
 H      3   2   1   1.094832   115.238   140.226
 H      5   4   3   1.099869   110.403   104.679
 H      5   4   3   1.095046   107.844   223.250
 H      7   6   5   1.088698   118.094   312.144
 H      7   6   5   1.092727   116.314    87.701
 H      8   2   1   1.092167   127.666   299.200
 H      9   8   2   1.092709   116.011   206.552
 H      9   8   2   1.088286   118.162    71.359

---------------------------
INTERNAL COORDINATES (A.U.)
---------------------------
 C      0   0   0   0.000000     0.000     0.000
 C      1   0   0   2.888923     0.000     0.000
 C      2   1   0   2.903006   109.951     0.000
 O      3   2   1   2.747854   105.480   260.411
 C      4   3   2   2.728198   112.587   350.260
 C      5   4   3   2.837351   102.196   344.720
 C      6   5   4   2.938710   147.109   147.354
 C      2   1   3   2.984998   118.037   158.218
 C      8   2   1   2.918963    88.720   160.705
 H      1   2   3   2.062230   114.083   174.302
 H      1   2   3   2.071681   109.223   293.938
 H      1   2   3   2.071283   111.272    51.766
 H      3   2   1   2.068863   111.784    16.955
 H      3   2   1   2.068932   115.238   140.226
 H      5   4   3   2.078452   110.403   104.679
 H      5   4   3   2.069338   107.844   223.250
 H      7   6   5   2.057340   118.094   312.144
 H      7   6   5   2.064956   116.314    87.701
 H      8   2   1   2.063896   127.666   299.200
 H      9   8   2   2.064920   116.011   206.552
 H      9   8   2   2.056562   118.162    71.359

---------------------
BASIS SET INFORMATION
---------------------
There are 3 groups of distinct atoms

 Group   1 Type C   : 11s6p2d1f contracted to 5s3p2d1f pattern {62111/411/11/1}
 Group   2 Type O   : 11s6p2d1f contracted to 5s3p2d1f pattern {62111/411/11/1}
 Group   3 Type H   : 5s1p contracted to 3s1p pattern {311/1}

Atom   0C    basis set group =>   1
Atom   1C    basis set group =>   1
Atom   2C    basis set group =>   1
Atom   3O    basis set group =>   2
Atom   4C    basis set group =>   1
Atom   5C    basis set group =>   1
Atom   6C    basis set group =>   1
Atom   7C    basis set group =>   1
Atom   8C    basis set group =>   1
Atom   9H    basis set group =>   3
Atom  10H    basis set group =>   3
Atom  11H    basis set group =>   3
Atom  12H    basis set group =>   3
Atom  13H    basis set group =>   3
Atom  14H    basis set group =>   3
Atom  15H    basis set group =>   3
Atom  16H    basis set group =>   3
Atom  17H    basis set group =>   3
Atom  18H    basis set group =>   3
Atom  19H    basis set group =>   3
Atom  20H    basis set group =>   3
-------------------------------
AUXILIARY BASIS SET INFORMATION
-------------------------------
There are 3 groups of distinct atoms

 Group   1 Type C   : 14s10p6d2f1g contracted to 10s8p5d1f1g pattern {5111111111/31111111/21111/2/1}
 Group   2 Type O   : 14s10p6d2f1g contracted to 10s8p4d2f1g pattern {5111111111/31111111/3111/11/1}
 Group   3 Type H   : 4s2p2d contracted to 2s2p2d pattern {31/11/11}

Atom   0C    basis set group =>   1
Atom   1C    basis set group =>   1
Atom   2C    basis set group =>   1
Atom   3O    basis set group =>   2
Atom   4C    basis set group =>   1
Atom   5C    basis set group =>   1
Atom   6C    basis set group =>   1
Atom   7C    basis set group =>   1
Atom   8C    basis set group =>   1
Atom   9H    basis set group =>   3
Atom  10H    basis set group =>   3
Atom  11H    basis set group =>   3
Atom  12H    basis set group =>   3
Atom  13H    basis set group =>   3
Atom  14H    basis set group =>   3
Atom  15H    basis set group =>   3
Atom  16H    basis set group =>   3
Atom  17H    basis set group =>   3
Atom  18H    basis set group =>   3
Atom  19H    basis set group =>   3
Atom  20H    basis set group =>   3
------------------------------------------------------------------------------
                           ORCA GTO INTEGRAL CALCULATION
                           -- RI-GTO INTEGRALS CHOSEN --
------------------------------------------------------------------------------

                         BASIS SET STATISTICS AND STARTUP INFO

Gaussian basis set:
 # of primitive gaussian shells          ...  252
 # of primitive gaussian functions       ...  510
 # of contracted shells                  ...  147
 # of contracted basis functions         ...  351
 Highest angular momentum                ...    3
 Maximum contraction depth               ...    6
Auxiliary gaussian basis set:
 # of primitive gaussian shells          ...  393
 # of primitive gaussian functions       ... 1113
 # of contracted shells                  ...  297
 # of contracted aux-basis functions     ...  893
 Highest angular momentum                ...    4
 Maximum contraction depth               ...    5
Ratio of auxiliary to basis functions    ...  2.54
Integral package used                  ... LIBINT
 One Electron integrals                  ... done
 Ordering auxiliary basis shells         ... done
 Integral threshhold             Thresh  ...  2.500e-11
 Primitive cut-off               TCut    ...  2.500e-12
 Pre-screening matrix                    ... done
 Shell pair data                         ... 
 Ordering of the shell pairs             ... done (   0.002 sec) 10348 of 10878 pairs
 Determination of significant pairs      ... done (   0.000 sec)
 Creation of shell pair data             ... done (   0.002 sec)
 Storage of shell pair data              ... done (   0.002 sec)
 Shell pair data done in (   0.006 sec)
 Computing two index integrals           ... done
 Cholesky decomposition of the V-matrix  ... done


Timings:
 Total evaluation time                   ...   0.424 sec (  0.007 min)
 One electron matrix time                ...   0.114 sec (  0.002 min) = 27.0%
 Schwartz matrix evaluation time         ...   0.215 sec (  0.004 min) = 50.7%
 Two index repulsion integral time       ...   0.023 sec (  0.000 min) =  5.5%
 Cholesky decomposition of V             ...   0.038 sec (  0.001 min) =  8.9%
 Three index repulsion integral time     ...   0.000 sec (  0.000 min) =  0.0%

-------------------------------------------------------------------------------
                                 ORCA SCF
-------------------------------------------------------------------------------

------------
SCF SETTINGS
------------
Hamiltonian:
 Ab initio Hamiltonian  Method          .... Hartree-Fock(GTOs)
 RI-approximation to the Coulomb term is turned on
   Number of auxiliary basis functions  .... 893
   RI-JK (J+K treated both via RI)      .... on


General Settings:
 Integral files         IntName         .... dsgdb9nsd_073539
 Hartree-Fock type      HFTyp           .... RHF
 Total Charge           Charge          ....    0
 Multiplicity           Mult            ....    1
 Number of Electrons    NEL             ....   68
 Basis Dimension        Dim             ....  351
 Nuclear Repulsion      ENuc            ....    487.4725624685 Eh

Convergence Acceleration:
 DIIS                   CNVDIIS         .... on
   Start iteration      DIISMaxIt       ....    12
   Startup error        DIISStart       ....  0.200000
   # of expansion vecs  DIISMaxEq       ....     5
   Bias factor          DIISBfac        ....   1.050
   Max. coefficient     DIISMaxC        ....  10.000
 Newton-Raphson         CNVNR           .... off
 SOSCF                  CNVSOSCF        .... on
   Start iteration      SOSCFMaxIt      ....   150
   Startup grad/error   SOSCFStart      ....  0.003300
 Level Shifting         CNVShift        .... on
   Level shift para.    LevelShift      ....    0.2500
   Turn off err/grad.   ShiftErr        ....    0.0010
 Zerner damping         CNVZerner       .... off
 Static damping         CNVDamp         .... on
   Fraction old density DampFac         ....    0.7000
   Max. Damping (<1)    DampMax         ....    0.9800
   Min. Damping (>=0)   DampMin         ....    0.0000
   Turn off err/grad.   DampErr         ....    0.1000
 Fernandez-Rico         CNVRico         .... off

SCF Procedure:
 Maximum # iterations   MaxIter         ....   125
 SCF integral mode      SCFMode         .... Direct
   Integral package                     .... LIBINT
 Reset frequeny         DirectResetFreq ....    20
 Integral Threshold     Thresh          ....  2.500e-11 Eh
 Primitive CutOff       TCut            ....  2.500e-12 Eh

Convergence Tolerance:
 Convergence Check Mode ConvCheckMode   .... Total+1el-Energy
 Energy Change          TolE            ....  1.000e-08 Eh
 1-El. energy change                    ....  1.000e-05 Eh
 Orbital Gradient       TolG            ....  1.000e-05
 Orbital Rotation angle TolX            ....  1.000e-05
 DIIS Error             TolErr          ....  5.000e-07


Diagonalization of the overlap matrix:
Smallest eigenvalue                        ... 1.955e-05
Time for diagonalization                   ...    0.035 sec
Threshold for overlap eigenvalues          ... 1.000e-08
Number of eigenvalues below threshold      ... 0
Time for construction of square roots      ...    0.019 sec
Total time needed                          ...    0.054 sec

-------------------
DFT GRID GENERATION
-------------------

General Integration Accuracy     IntAcc      ...  4.340
Radial Grid Type                 RadialGrid  ... Gauss-Chebyshev
Angular Grid (max. acc.)         AngularGrid ... Lebedev-110
Angular grid pruning method      GridPruning ... 3 (G Style)
Weight generation scheme         WeightScheme... Becke
Basis function cutoff            BFCut       ...    1.0000e-11
Integration weight cutoff        WCut        ...    1.0000e-14
Grids for H and He will be reduced by one unit

# of grid points (after initial pruning)     ...  24492 (   0.0 sec)
# of grid points (after weights+screening)   ...  22039 (   0.1 sec)
nearest neighbour list constructed           ...    0.0 sec
Grid point re-assignment to atoms done       ...    0.0 sec
Grid point division into batches done        ...    0.0 sec
Reduced shell lists constructed in    1.4 sec

Total number of grid points                  ...    22039
Total number of batches                      ...      352
Average number of points per batch           ...       62
Average number of grid points per atom       ...     1049
Average number of shells per batch           ...   105.48 (71.75%)
Average number of basis functions per batch  ...   262.31 (74.73%)
Average number of large shells per batch     ...    83.18 (78.87%)
Average number of large basis fcns per batch ...   203.41 (77.54%)
Average number of aux-shells per batch       ...   105.48 (35.51%)
Average number of aux functions per batch    ...   262.31 (  inf%)
Maximum spatial batch extension              ...  20.29, 21.01, 24.57 au
Average spatial batch extension              ...   3.51,  3.50,  3.61 au

Time for grid setup =    1.587 sec

------------------------------
INITIAL GUESS: MODEL POTENTIAL
------------------------------
Loading Hartree-Fock densities                     ... done
Calculating cut-offs                               ... done
Setting up the integral package                    ... done
Initializing the effective Hamiltonian             ... done
Starting the Coulomb interaction                   ... done (   0.9 sec)
Reading the grid                                   ... done
Mapping shells                                     ... done
Starting the XC term evaluation                    ... done (   0.9 sec)
Transforming the Hamiltonian                       ... done (   0.0 sec)
Diagonalizing the Hamiltonian                      ... done (   0.0 sec)
Back transforming the eigenvectors                 ... done (   0.0 sec)
Now organizing SCF variables                       ... done
                      ------------------
                      INITIAL GUESS DONE (   3.6 sec)
                      ------------------
--------------
SCF ITERATIONS
--------------
ITER       Energy         Delta-E        Max-DP      RMS-DP      [F,P]     Damp
  0   -384.4095665608   0.000000000000 0.05060252  0.00099881  0.2964027 0.7000
  1   -384.3065046298   0.103061930933 0.04299904  0.00096027  0.2480652 0.7000
                               ***Turning on DIIS***
  2   -384.3513583063  -0.044853676472 0.03183863  0.00068205  0.1809151 0.7000
  3   -385.5656138646  -1.214255558320 0.02267894  0.00043297  0.1266987 0.7000
  4   -384.7292664317   0.836347432941 0.07312998  0.00113315  0.0841369 0.0000
  5   -384.8710089039  -0.141742472211 0.01446374  0.00023019  0.0169140 0.0000
  6   -384.6931828906   0.177826013255 0.00746830  0.00013234  0.0094505 0.0000
  7   -384.7212675315  -0.028084640873 0.00215224  0.00006035  0.0060306 0.0000
  8   -384.7120667131   0.009200818412 0.00162609  0.00004257  0.0038883 0.0000
                      *** Initiating the SOSCF procedure ***
                           *** Shutting down DIIS ***
                      *** Re-Reading the Fockian *** 
                      *** Removing any level shift *** 
ITER      Energy       Delta-E        Grad      Rot      Max-DP    RMS-DP
  9   -384.78643785  -0.0743711396  0.000104  0.000104  0.000560  0.000014
 10   -384.79091831  -0.0044804532  0.000043  0.000045  0.000372  0.000005
 11   -384.79091846  -0.0000001492  0.000030  0.000025  0.000078  0.000001
 12   -384.79091857  -0.0000001152  0.000004  0.000008  0.000019  0.000001
                  ***Gradient check signals convergence***
              ***Rediagonalizing the Fockian in SOSCF/NRSCF***

               *****************************************************
               *                     SUCCESS                       *
               *           SCF CONVERGED AFTER  13 CYCLES          *
               *****************************************************


----------------
TOTAL SCF ENERGY
----------------

Total Energy       :         -384.79091857 Eh          -10470.69321 eV

Components:
Nuclear Repulsion  :          487.47256247 Eh           13264.80279 eV
Electronic Energy  :         -872.26348104 Eh          -23735.49601 eV

One Electron Energy:        -1489.30610705 Eh          -40526.07948 eV
Two Electron Energy:          617.04262601 Eh           16790.58347 eV

Virial components:
Potential Energy   :         -769.05890070 Eh          -20927.15660 eV
Kinetic Energy     :          384.26798212 Eh           10456.46339 eV
Virial Ratio       :            2.00136086


---------------
SCF CONVERGENCE
---------------

  Last Energy change         ...   -2.6674e-09  Tolerance :   1.0000e-08
  Last MAX-Density change    ...    7.2366e-06  Tolerance :   1.0000e-07
  Last RMS-Density change    ...    2.1189e-07  Tolerance :   5.0000e-09
  Last Orbital Gradient      ...    1.4872e-06  Tolerance :   1.0000e-05
  Last Orbital Rotation      ...    3.8795e-06  Tolerance :   1.0000e-05

             **** THE GBW FILE WAS UPDATED (dsgdb9nsd_073539.gbw) ****
             **** DENSITY FILE WAS UPDATED (dsgdb9nsd_073539.scfp.tmp) ****
             **** ENERGY FILE WAS UPDATED (dsgdb9nsd_073539.en.tmp) ****
----------------
ORBITAL ENERGIES
----------------

  NO   OCC          E(Eh)            E(eV) 
   0   2.0000     -20.541948      -558.9748 
   1   2.0000     -11.272048      -306.7280 
   2   2.0000     -11.267888      -306.6148 
   3   2.0000     -11.253296      -306.2177 
   4   2.0000     -11.245951      -306.0179 
   5   2.0000     -11.239907      -305.8534 
   6   2.0000     -11.236998      -305.7743 
   7   2.0000     -11.225725      -305.4675 
   8   2.0000     -11.215729      -305.1955 
   9   2.0000      -1.355522       -36.8856 
  10   2.0000      -1.212246       -32.9869 
  11   2.0000      -1.020655       -27.7734 
  12   2.0000      -0.969876       -26.3917 
  13   2.0000      -0.930128       -25.3101 
  14   2.0000      -0.887383       -24.1469 
  15   2.0000      -0.837557       -22.7911 
  16   2.0000      -0.792836       -21.5742 
  17   2.0000      -0.697871       -18.9900 
  18   2.0000      -0.671120       -18.2621 
  19   2.0000      -0.666044       -18.1240 
  20   2.0000      -0.637528       -17.3480 
  21   2.0000      -0.606954       -16.5161 
  22   2.0000      -0.564587       -15.3632 
  23   2.0000      -0.562775       -15.3139 
  24   2.0000      -0.559505       -15.2249 
  25   2.0000      -0.546395       -14.8682 
  26   2.0000      -0.524799       -14.2805 
  27   2.0000      -0.491694       -13.3797 
  28   2.0000      -0.461210       -12.5502 
  29   2.0000      -0.452191       -12.3047 
  30   2.0000      -0.437568       -11.9068 
  31   2.0000      -0.434755       -11.8303 
  32   2.0000      -0.406790       -11.0693 
  33   2.0000      -0.382938       -10.4203 
  34   0.0000       0.142046         3.8653 
  35   0.0000       0.159838         4.3494 
  36   0.0000       0.165807         4.5118 
  37   0.0000       0.174676         4.7532 
  38   0.0000       0.188550         5.1307 
  39   0.0000       0.194276         5.2865 
  40   0.0000       0.203524         5.5382 
  41   0.0000       0.219072         5.9613 
  42   0.0000       0.222673         6.0593 
  43   0.0000       0.233608         6.3568 
  44   0.0000       0.241917         6.5829 
  45   0.0000       0.243167         6.6169 
  46   0.0000       0.254174         6.9164 
  47   0.0000       0.260967         7.1013 
  48   0.0000       0.270551         7.3621 
  49   0.0000       0.279959         7.6181 
  50   0.0000       0.286015         7.7829 
  51   0.0000       0.301637         8.2080 
  52   0.0000       0.310596         8.4518 
  53   0.0000       0.320707         8.7269 
  54   0.0000       0.329769         8.9735 
  55   0.0000       0.353794         9.6272 
  56   0.0000       0.365328         9.9411 
  57   0.0000       0.370929        10.0935 
  58   0.0000       0.374884        10.2011 
  59   0.0000       0.418683        11.3929 
  60   0.0000       0.422878        11.5071 
  61   0.0000       0.434419        11.8211 
  62   0.0000       0.453966        12.3530 
  63   0.0000       0.469320        12.7708 
  64   0.0000       0.476274        12.9601 
  65   0.0000       0.482828        13.1384 
  66   0.0000       0.509166        13.8551 
  67   0.0000       0.516526        14.0554 
  68   0.0000       0.524914        14.2836 
  69   0.0000       0.537883        14.6365 
  70   0.0000       0.539698        14.6859 
  71   0.0000       0.550879        14.9902 
  72   0.0000       0.556765        15.1503 
  73   0.0000       0.565506        15.3882 
  74   0.0000       0.571799        15.5594 
  75   0.0000       0.584592        15.9075 
  76   0.0000       0.589554        16.0426 
  77   0.0000       0.597329        16.2542 
  78   0.0000       0.604846        16.4587 
  79   0.0000       0.605865        16.4864 
  80   0.0000       0.614549        16.7227 
  81   0.0000       0.620050        16.8724 
  82   0.0000       0.638211        17.3666 
  83   0.0000       0.639684        17.4067 
  84   0.0000       0.647799        17.6275 
  85   0.0000       0.667394        18.1607 
  86   0.0000       0.675220        18.3737 
  87   0.0000       0.684070        18.6145 
  88   0.0000       0.697857        18.9897 
  89   0.0000       0.702084        19.1047 
  90   0.0000       0.703949        19.1554 
  91   0.0000       0.718328        19.5467 
  92   0.0000       0.730052        19.8657 
  93   0.0000       0.735566        20.0158 
  94   0.0000       0.771865        21.0035 
  95   0.0000       0.795941        21.6587 
  96   0.0000       0.803047        21.8520 
  97   0.0000       0.821001        22.3406 
  98   0.0000       0.839748        22.8507 
  99   0.0000       0.854427        23.2501 
 100   0.0000       0.895244        24.3608 
 101   0.0000       0.917113        24.9559 
 102   0.0000       0.952714        25.9247 
 103   0.0000       0.961969        26.1765 
 104   0.0000       0.978988        26.6396 
 105   0.0000       1.018054        27.7027 
 106   0.0000       1.050578        28.5877 
 107   0.0000       1.063105        28.9286 
 108   0.0000       1.081223        29.4216 
 109   0.0000       1.101516        29.9738 
 110   0.0000       1.104359        30.0511 
 111   0.0000       1.123238        30.5649 
 112   0.0000       1.136312        30.9206 
 113   0.0000       1.148870        31.2623 
 114   0.0000       1.170887        31.8615 
 115   0.0000       1.178759        32.0757 
 116   0.0000       1.208536        32.8859 
 117   0.0000       1.217834        33.1390 
 118   0.0000       1.226921        33.3862 
 119   0.0000       1.261212        34.3193 
 120   0.0000       1.265318        34.4310 
 121   0.0000       1.277749        34.7693 
 122   0.0000       1.288406        35.0593 
 123   0.0000       1.299099        35.3503 
 124   0.0000       1.314652        35.7735 
 125   0.0000       1.325900        36.0796 
 126   0.0000       1.343863        36.5684 
 127   0.0000       1.362783        37.0832 
 128   0.0000       1.385904        37.7124 
 129   0.0000       1.391310        37.8595 
 130   0.0000       1.405426        38.2436 
 131   0.0000       1.425200        38.7817 
 132   0.0000       1.431978        38.9661 
 133   0.0000       1.466001        39.8919 
 134   0.0000       1.466226        39.8980 
 135   0.0000       1.482470        40.3401 
 136   0.0000       1.549158        42.1547 
 137   0.0000       1.577183        42.9173 
 138   0.0000       1.588499        43.2253 
 139   0.0000       1.602419        43.6040 
 140   0.0000       1.620411        44.0936 
 141   0.0000       1.635600        44.5070 
 142   0.0000       1.645648        44.7804 
 143   0.0000       1.666822        45.3565 
 144   0.0000       1.675461        45.5916 
 145   0.0000       1.748842        47.5884 
 146   0.0000       1.786388        48.6101 
 147   0.0000       1.814813        49.3836 
 148   0.0000       1.825343        49.6701 
 149   0.0000       1.838668        50.0327 
 150   0.0000       1.845633        50.2222 
 151   0.0000       1.865667        50.7674 
 152   0.0000       1.877352        51.0854 
 153   0.0000       1.887141        51.3517 
 154   0.0000       1.907065        51.8939 
 155   0.0000       1.917019        52.1647 
 156   0.0000       1.933230        52.6059 
 157   0.0000       1.941511        52.8312 
 158   0.0000       1.948282        53.0154 
 159   0.0000       1.965957        53.4964 
 160   0.0000       2.003225        54.5105 
 161   0.0000       2.013957        54.8026 
 162   0.0000       2.054643        55.9097 
 163   0.0000       2.068834        56.2958 
 164   0.0000       2.086321        56.7717 
 165   0.0000       2.116963        57.6055 
 166   0.0000       2.142487        58.3000 
 167   0.0000       2.159929        58.7747 
 168   0.0000       2.178793        59.2880 
 169   0.0000       2.210142        60.1410 
 170   0.0000       2.215858        60.2966 
 171   0.0000       2.241953        61.0066 
 172   0.0000       2.274234        61.8850 
 173   0.0000       2.286834        62.2279 
 174   0.0000       2.302263        62.6478 
 175   0.0000       2.336062        63.5675 
 176   0.0000       2.339383        63.6578 
 177   0.0000       2.370858        64.5143 
 178   0.0000       2.373875        64.5964 
 179   0.0000       2.382515        64.8315 
 180   0.0000       2.410842        65.6023 
 181   0.0000       2.422651        65.9237 
 182   0.0000       2.444272        66.5120 
 183   0.0000       2.449010        66.6409 
 184   0.0000       2.476193        67.3806 
 185   0.0000       2.492173        67.8155 
 186   0.0000       2.512231        68.3613 
 187   0.0000       2.538490        69.0758 
 188   0.0000       2.550687        69.4077 
 189   0.0000       2.563467        69.7555 
 190   0.0000       2.604863        70.8819 
 191   0.0000       2.615260        71.1648 
 192   0.0000       2.635807        71.7239 
 193   0.0000       2.646904        72.0259 
 194   0.0000       2.664817        72.5133 
 195   0.0000       2.677488        72.8581 
 196   0.0000       2.703597        73.5686 
 197   0.0000       2.721408        74.0533 
 198   0.0000       2.727590        74.2215 
 199   0.0000       2.740342        74.5685 
 200   0.0000       2.779863        75.6439 
 201   0.0000       2.794269        76.0359 
 202   0.0000       2.795179        76.0607 
 203   0.0000       2.821169        76.7679 
 204   0.0000       2.842466        77.3474 
 205   0.0000       2.849913        77.5501 
 206   0.0000       2.859548        77.8123 
 207   0.0000       2.861567        77.8672 
 208   0.0000       2.901286        78.9480 
 209   0.0000       2.911949        79.2382 
 210   0.0000       2.924649        79.5838 
 211   0.0000       2.932944        79.8095 
 212   0.0000       2.945799        80.1593 
 213   0.0000       2.949938        80.2719 
 214   0.0000       2.972774        80.8933 
 215   0.0000       2.988738        81.3277 
 216   0.0000       2.998002        81.5798 
 217   0.0000       3.023263        82.2672 
 218   0.0000       3.034616        82.5761 
 219   0.0000       3.066891        83.4543 
 220   0.0000       3.080763        83.8318 
 221   0.0000       3.104256        84.4711 
 222   0.0000       3.113555        84.7242 
 223   0.0000       3.120730        84.9194 
 224   0.0000       3.129535        85.1590 
 225   0.0000       3.156335        85.8882 
 226   0.0000       3.183685        86.6325 
 227   0.0000       3.192758        86.8794 
 228   0.0000       3.201563        87.1189 
 229   0.0000       3.254666        88.5640 
 230   0.0000       3.257552        88.6425 
 231   0.0000       3.265701        88.8642 
 232   0.0000       3.310979        90.0963 
 233   0.0000       3.323009        90.4237 
 234   0.0000       3.347967        91.1028 
 235   0.0000       3.358528        91.3902 
 236   0.0000       3.366054        91.5950 
 237   0.0000       3.393388        92.3388 
 238   0.0000       3.427403        93.2644 
 239   0.0000       3.435192        93.4763 
 240   0.0000       3.456337        94.0517 
 241   0.0000       3.461834        94.2013 
 242   0.0000       3.490189        94.9729 
 243   0.0000       3.525333        95.9292 
 244   0.0000       3.530955        96.0822 
 245   0.0000       3.538956        96.2999 
 246   0.0000       3.554222        96.7153 
 247   0.0000       3.561133        96.9034 
 248   0.0000       3.568897        97.1146 
 249   0.0000       3.583735        97.5184 
 250   0.0000       3.590026        97.6896 
 251   0.0000       3.605742        98.1172 
 252   0.0000       3.615816        98.3914 
 253   0.0000       3.636420        98.9520 
 254   0.0000       3.647714        99.2593 
 255   0.0000       3.659768        99.5873 
 256   0.0000       3.676160       100.0334 
 257   0.0000       3.689483       100.3959 
 258   0.0000       3.701890       100.7335 
 259   0.0000       3.710359       100.9640 
 260   0.0000       3.724127       101.3386 
 261   0.0000       3.744469       101.8922 
 262   0.0000       3.755800       102.2005 
 263   0.0000       3.781515       102.9003 
 264   0.0000       3.797522       103.3358 
 265   0.0000       3.839506       104.4783 
 266   0.0000       3.855493       104.9133 
 267   0.0000       3.863868       105.1412 
 268   0.0000       3.894969       105.9875 
 269   0.0000       3.903782       106.2273 
 270   0.0000       3.936940       107.1296 
 271   0.0000       3.947687       107.4220 
 272   0.0000       3.972567       108.0990 
 273   0.0000       3.994217       108.6882 
 274   0.0000       4.014296       109.2346 
 275   0.0000       4.038552       109.8946 
 276   0.0000       4.051608       110.2499 
 277   0.0000       4.059643       110.4685 
 278   0.0000       4.076801       110.9354 
 279   0.0000       4.102700       111.6402 
 280   0.0000       4.118484       112.0696 
 281   0.0000       4.160564       113.2147 
 282   0.0000       4.164741       113.3284 
 283   0.0000       4.197361       114.2160 
 284   0.0000       4.229944       115.1026 
 285   0.0000       4.248656       115.6118 
 286   0.0000       4.262983       116.0017 
 287   0.0000       4.268286       116.1460 
 288   0.0000       4.306142       117.1761 
 289   0.0000       4.341420       118.1360 
 290   0.0000       4.362141       118.6999 
 291   0.0000       4.403961       119.8379 
 292   0.0000       4.422389       120.3393 
 293   0.0000       4.432525       120.6151 
 294   0.0000       4.449276       121.0709 
 295   0.0000       4.492417       122.2449 
 296   0.0000       4.524113       123.1074 
 297   0.0000       4.531751       123.3152 
 298   0.0000       4.566736       124.2672 
 299   0.0000       4.593616       124.9986 
 300   0.0000       4.627598       125.9234 
 301   0.0000       4.629643       125.9790 
 302   0.0000       4.680932       127.3746 
 303   0.0000       4.684825       127.4806 
 304   0.0000       4.719754       128.4310 
 305   0.0000       4.727785       128.6496 
 306   0.0000       4.750315       129.2626 
 307   0.0000       4.759367       129.5090 
 308   0.0000       4.832745       131.5057 
 309   0.0000       4.846454       131.8787 
 310   0.0000       4.872595       132.5901 
 311   0.0000       4.898349       133.2909 
 312   0.0000       4.973739       135.3423 
 313   0.0000       5.021799       136.6501 
 314   0.0000       5.049055       137.3918 
 315   0.0000       5.084410       138.3538 
 316   0.0000       5.101931       138.8306 
 317   0.0000       5.159338       140.3927 
 318   0.0000       5.180688       140.9737 
 319   0.0000       5.225381       142.1898 
 320   0.0000       5.239156       142.5647 
 321   0.0000       5.285748       143.8325 
 322   0.0000       5.314739       144.6214 
 323   0.0000       5.351862       145.6316 
 324   0.0000       5.377670       146.3339 
 325   0.0000       5.403593       147.0392 
 326   0.0000       5.510150       149.9388 
 327   0.0000       5.530018       150.4794 
 328   0.0000       5.693429       154.9261 
 329   0.0000       5.784634       157.4079 
 330   0.0000       5.874761       159.8604 
 331   0.0000       5.920264       161.0986 
 332   0.0000       6.257712       170.2810 
 333   0.0000       6.260303       170.3515 
 334   0.0000       6.324079       172.0869 
 335   0.0000       6.559944       178.5051 
 336   0.0000       6.633633       180.5103 
 337   0.0000       7.251459       197.3222 
 338   0.0000       7.345125       199.8710 
 339   0.0000       7.418008       201.8543 
 340   0.0000       7.704350       209.6460 
 341   0.0000       7.778334       211.6592 
 342   0.0000      23.424786       637.4208 
 343   0.0000      23.449048       638.0810 
 344   0.0000      23.522288       640.0740 
 345   0.0000      23.607340       642.3884 
 346   0.0000      23.701006       644.9372 
 347   0.0000      23.892544       650.1492 
 348   0.0000      24.004496       653.1956 
 349   0.0000      24.484298       666.2516 
 350   0.0000      45.808884      1246.5231 

                    ********************************
                    * MULLIKEN POPULATION ANALYSIS *
                    ********************************

-----------------------
MULLIKEN ATOMIC CHARGES
-----------------------
   0 C :   -0.410016
   1 C :    0.029518
   2 C :    0.039747
   3 O :   -0.427561
   4 C :    0.047051
   5 C :   -0.013755
   6 C :   -0.168816
   7 C :   -0.043293
   8 C :   -0.230667
   9 H :    0.103005
  10 H :    0.112641
  11 H :    0.120152
  12 H :    0.085116
  13 H :    0.072964
  14 H :    0.075858
  15 H :    0.083683
  16 H :    0.102787
  17 H :    0.097226
  18 H :    0.125188
  19 H :    0.095519
  20 H :    0.103653
Sum of atomic charges:    0.0000000

--------------------------------
MULLIKEN REDUCED ORBITAL CHARGES
--------------------------------
  0 C s       :     3.283276  s :     3.283276
      pz      :     1.054895  p :     3.044238
      px      :     1.055926
      py      :     0.933417
      dz2     :     0.011156  d :     0.077897
      dxz     :     0.013752
      dyz     :     0.018266
      dx2y2   :     0.013779
      dxy     :     0.020944
      f0      :     0.000290  f :     0.004604
      f+1     :     0.001128
      f-1     :     0.000574
      f+2     :     0.000539
      f-2     :     0.000114
      f+3     :     0.000705
      f-3     :     0.001254
  1 C s       :     3.109594  s :     3.109594
      pz      :     0.958580  p :     2.698719
      px      :     0.858259
      py      :     0.881880
      dz2     :     0.018599  d :     0.150879
      dxz     :     0.028217
      dyz     :     0.028999
      dx2y2   :     0.041482
      dxy     :     0.033582
      f0      :     0.001359  f :     0.011289
      f+1     :     0.001361
      f-1     :     0.001163
      f+2     :     0.001657
      f-2     :     0.001413
      f+3     :     0.002429
      f-3     :     0.001906
  2 C s       :     3.192812  s :     3.192812
      pz      :     0.684383  p :     2.621093
      px      :     0.965517
      py      :     0.971194
      dz2     :     0.033258  d :     0.135392
      dxz     :     0.028369
      dyz     :     0.039821
      dx2y2   :     0.012802
      dxy     :     0.021142
      f0      :     0.002988  f :     0.010955
      f+1     :     0.002127
      f-1     :     0.002461
      f+2     :     0.000792
      f-2     :     0.000491
      f+3     :     0.000971
      f-3     :     0.001124
  3 O s       :     3.781895  s :     3.781895
      pz      :     1.298876  p :     4.606960
      px      :     1.462521
      py      :     1.845562
      dz2     :     0.012680  d :     0.036789
      dxz     :     0.007572
      dyz     :     0.005350
      dx2y2   :     0.007420
      dxy     :     0.003767
      f0      :     0.000541  f :     0.001917
      f+1     :     0.000255
      f-1     :     0.000275
      f+2     :     0.000303
      f-2     :     0.000114
      f+3     :     0.000274
      f-3     :     0.000155
  4 C s       :     3.184996  s :     3.184996
      pz      :     0.921861  p :     2.620440
      px      :     0.702434
      py      :     0.996144
      dz2     :     0.018374  d :     0.136550
      dxz     :     0.027217
      dyz     :     0.034628
      dx2y2   :     0.028257
      dxy     :     0.028073
      f0      :     0.001129  f :     0.010963
      f+1     :     0.002149
      f-1     :     0.000414
      f+2     :     0.002961
      f-2     :     0.001363
      f+3     :     0.001048
      f-3     :     0.001900
  5 C s       :     3.156199  s :     3.156199
      pz      :     0.824129  p :     2.694124
      px      :     0.924333
      py      :     0.945662
      dz2     :     0.028774  d :     0.150243
      dxz     :     0.035547
      dyz     :     0.037608
      dx2y2   :     0.025835
      dxy     :     0.022479
      f0      :     0.001925  f :     0.013190
      f+1     :     0.002869
      f-1     :     0.002172
      f+2     :     0.002282
      f-2     :     0.001725
      f+3     :     0.001147
      f-3     :     0.001071
  6 C s       :     3.212774  s :     3.212774
      pz      :     0.940831  p :     2.859057
      px      :     0.905236
      py      :     1.012990
      dz2     :     0.019186  d :     0.089840
      dxz     :     0.021456
      dyz     :     0.010795
      dx2y2   :     0.020941
      dxy     :     0.017463
      f0      :     0.000733  f :     0.007144
      f+1     :     0.001315
      f-1     :     0.000697
      f+2     :     0.000871
      f-2     :     0.000923
      f+3     :     0.001128
      f-3     :     0.001477
  7 C s       :     3.109798  s :     3.109798
      pz      :     0.962416  p :     2.804221
      px      :     0.900577
      py      :     0.941229
      dz2     :     0.029186  d :     0.118720
      dxz     :     0.027087
      dyz     :     0.023254
      dx2y2   :     0.019551
      dxy     :     0.019641
      f0      :     0.002170  f :     0.010555
      f+1     :     0.002289
      f-1     :     0.001847
      f+2     :     0.001243
      f-2     :     0.001241
      f+3     :     0.000830
      f-3     :     0.000935
  8 C s       :     3.232993  s :     3.232993
      pz      :     0.966368  p :     2.902117
      px      :     1.041421
      py      :     0.894327
      dz2     :     0.015086  d :     0.088148
      dxz     :     0.009560
      dyz     :     0.026822
      dx2y2   :     0.005709
      dxy     :     0.030971
      f0      :     0.000780  f :     0.007409
      f+1     :     0.000354
      f-1     :     0.001366
      f+2     :     0.001160
      f-2     :     0.001233
      f+3     :     0.001059
      f-3     :     0.001457
  9 H s       :     0.874591  s :     0.874591
      pz      :     0.003889  p :     0.022403
      px      :     0.011987
      py      :     0.006527
 10 H s       :     0.865641  s :     0.865641
      pz      :     0.010226  p :     0.021719
      px      :     0.006914
      py      :     0.004579
 11 H s       :     0.858099  s :     0.858099
      pz      :     0.010406  p :     0.021749
      px      :     0.005900
      py      :     0.005443
 12 H s       :     0.893338  s :     0.893338
      pz      :     0.002613  p :     0.021546
      px      :     0.010682
      py      :     0.008251
 13 H s       :     0.905049  s :     0.905049
      pz      :     0.005570  p :     0.021987
      px      :     0.004532
      py      :     0.011885
 14 H s       :     0.903101  s :     0.903101
      pz      :     0.006950  p :     0.021041
      px      :     0.002364
      py      :     0.011728
 15 H s       :     0.894856  s :     0.894856
      pz      :     0.008332  p :     0.021461
      px      :     0.002702
      py      :     0.010427
 16 H s       :     0.874049  s :     0.874049
      pz      :     0.003887  p :     0.023164
      px      :     0.004068
      py      :     0.015209
 17 H s       :     0.880315  s :     0.880315
      pz      :     0.004186  p :     0.022459
      px      :     0.012069
      py      :     0.006204
 18 H s       :     0.853018  s :     0.853018
      pz      :     0.014474  p :     0.021794
      px      :     0.003883
      py      :     0.003437
 19 H s       :     0.882064  s :     0.882064
      pz      :     0.004278  p :     0.022418
      px      :     0.010536
      py      :     0.007604
 20 H s       :     0.873135  s :     0.873135
      pz      :     0.004339  p :     0.023212
      px      :     0.011106
      py      :     0.007766


                     *******************************
                     * LOEWDIN POPULATION ANALYSIS *
                     *******************************

----------------------
LOEWDIN ATOMIC CHARGES
----------------------
   0 C :   -0.242582
   1 C :   -0.190310
   2 C :   -0.209723
   3 O :    0.074198
   4 C :   -0.229733
   5 C :   -0.179436
   6 C :   -0.146721
   7 C :   -0.126427
   8 C :   -0.147247
   9 H :    0.111927
  10 H :    0.117376
  11 H :    0.119096
  12 H :    0.117358
  13 H :    0.111813
  14 H :    0.115304
  15 H :    0.117714
  16 H :    0.116011
  17 H :    0.118675
  18 H :    0.112605
  19 H :    0.118837
  20 H :    0.121267

-------------------------------
LOEWDIN REDUCED ORBITAL CHARGES
-------------------------------
  0 C s       :     2.816568  s :     2.816568
      pz      :     1.052156  p :     3.120530
      px      :     1.051093
      py      :     1.017281
      dz2     :     0.040200  d :     0.280909
      dxz     :     0.044123
      dyz     :     0.066596
      dx2y2   :     0.051534
      dxy     :     0.078457
      f0      :     0.002014  f :     0.024575
      f+1     :     0.003368
      f-1     :     0.003613
      f+2     :     0.003958
      f-2     :     0.002118
      f+3     :     0.004484
      f-3     :     0.005019
  1 C s       :     2.685954  s :     2.685954
      pz      :     0.927533  p :     2.832942
      px      :     0.935757
      py      :     0.969651
      dz2     :     0.085174  d :     0.605349
      dxz     :     0.102190
      dyz     :     0.095543
      dx2y2   :     0.187160
      dxy     :     0.135282
      f0      :     0.007720  f :     0.066065
      f+1     :     0.008417
      f-1     :     0.005766
      f+2     :     0.011123
      f-2     :     0.008986
      f+3     :     0.015650
      f-3     :     0.008402
  2 C s       :     2.789035  s :     2.789035
      pz      :     0.790873  p :     2.832935
      px      :     1.011371
      py      :     1.030691
      dz2     :     0.138413  d :     0.518262
      dxz     :     0.097645
      dyz     :     0.134128
      dx2y2   :     0.058972
      dxy     :     0.089104
      f0      :     0.019024  f :     0.069490
      f+1     :     0.015569
      f-1     :     0.014277
      f+2     :     0.007189
      f-2     :     0.003707
      f+3     :     0.005430
      f-3     :     0.004295
  3 O s       :     3.308321  s :     3.308321
      pz      :     1.333382  p :     4.520175
      px      :     1.462546
      py      :     1.724247
      dz2     :     0.029772  d :     0.091722
      dxz     :     0.025161
      dyz     :     0.014041
      dx2y2   :     0.013699
      dxy     :     0.009048
      f0      :     0.001144  f :     0.005585
      f+1     :     0.001409
      f-1     :     0.000842
      f+2     :     0.000654
      f-2     :     0.000486
      f+3     :     0.000566
      f-3     :     0.000485
  4 C s       :     2.786473  s :     2.786473
      pz      :     0.978466  p :     2.839467
      px      :     0.827888
      py      :     1.033113
      dz2     :     0.071645  d :     0.531916
      dxz     :     0.115239
      dyz     :     0.135380
      dx2y2   :     0.122658
      dxy     :     0.086994
      f0      :     0.011006  f :     0.071877
      f+1     :     0.016286
      f-1     :     0.002701
      f+2     :     0.011463
      f-2     :     0.008673
      f+3     :     0.008344
      f-3     :     0.013404
  5 C s       :     2.681601  s :     2.681601
      pz      :     0.934054  p :     2.787894
      px      :     0.938241
      py      :     0.915599
      dz2     :     0.163542  d :     0.631641
      dxz     :     0.151250
      dyz     :     0.121484
      dx2y2   :     0.106085
      dxy     :     0.089281
      f0      :     0.011955  f :     0.078300
      f+1     :     0.012266
      f-1     :     0.012366
      f+2     :     0.014938
      f-2     :     0.013705
      f+3     :     0.007773
      f-3     :     0.005298
  6 C s       :     2.773926  s :     2.773926
      pz      :     0.969411  p :     2.939490
      px      :     0.959914
      py      :     1.010165
      dz2     :     0.078023  d :     0.394335
      dxz     :     0.070342
      dyz     :     0.040502
      dx2y2   :     0.112338
      dxy     :     0.093129
      f0      :     0.004193  f :     0.038970
      f+1     :     0.007197
      f-1     :     0.004170
      f+2     :     0.005836
      f-2     :     0.006494
      f+3     :     0.006039
      f-3     :     0.005042
  7 C s       :     2.733205  s :     2.733205
      pz      :     0.958973  p :     2.836802
      px      :     0.922379
      py      :     0.955449
      dz2     :     0.175567  d :     0.497572
      dxz     :     0.098886
      dyz     :     0.074886
      dx2y2   :     0.071886
      dxy     :     0.076347
      f0      :     0.007971  f :     0.058849
      f+1     :     0.010222
      f-1     :     0.009678
      f+2     :     0.010085
      f-2     :     0.010672
      f+3     :     0.005818
      f-3     :     0.004403
  8 C s       :     2.767557  s :     2.767557
      pz      :     0.981165  p :     2.945885
      px      :     1.010025
      py      :     0.954695
      dz2     :     0.069124  d :     0.393680
      dxz     :     0.034771
      dyz     :     0.085081
      dx2y2   :     0.040940
      dxy     :     0.163763
      f0      :     0.004694  f :     0.040126
      f+1     :     0.002284
      f-1     :     0.007809
      f+2     :     0.008266
      f-2     :     0.006074
      f+3     :     0.005761
      f-3     :     0.005239
  9 H s       :     0.827186  s :     0.827186
      pz      :     0.012821  p :     0.060888
      px      :     0.031496
      py      :     0.016571
 10 H s       :     0.823341  s :     0.823341
      pz      :     0.026670  p :     0.059283
      px      :     0.019558
      py      :     0.013055
 11 H s       :     0.821094  s :     0.821094
      pz      :     0.027785  p :     0.059810
      px      :     0.017329
      py      :     0.014696
 12 H s       :     0.825795  s :     0.825795
      pz      :     0.008392  p :     0.056847
      px      :     0.025216
      py      :     0.023239
 13 H s       :     0.830242  s :     0.830242
      pz      :     0.014502  p :     0.057945
      px      :     0.013092
      py      :     0.030352
 14 H s       :     0.828667  s :     0.828667
      pz      :     0.017572  p :     0.056029
      px      :     0.008099
      py      :     0.030358
 15 H s       :     0.825633  s :     0.825633
      pz      :     0.020053  p :     0.056653
      px      :     0.008912
      py      :     0.027688
 16 H s       :     0.822939  s :     0.822939
      pz      :     0.012480  p :     0.061050
      px      :     0.011294
      py      :     0.037276
 17 H s       :     0.822165  s :     0.822165
      pz      :     0.013069  p :     0.059160
      px      :     0.027352
      py      :     0.018739
 18 H s       :     0.827948  s :     0.827948
      pz      :     0.036195  p :     0.059448
      px      :     0.012172
      py      :     0.011081
 19 H s       :     0.822161  s :     0.822161
      pz      :     0.013665  p :     0.059003
      px      :     0.027995
      py      :     0.017343
 20 H s       :     0.817254  s :     0.817254
      pz      :     0.013994  p :     0.061479
      px      :     0.029598
      py      :     0.017887


                      *****************************
                      * MAYER POPULATION ANALYSIS *
                      *****************************

  NA   - Mulliken gross atomic population
  ZA   - Total nuclear charge
  QA   - Mulliken gross atomic charge
  VA   - Mayer's total valence
  BVA  - Mayer's bonded valence
  FA   - Mayer's free valence

  ATOM       NA         ZA         QA         VA         BVA        FA
  0 C      6.4100     6.0000    -0.4100     3.9437     3.9437    -0.0000
  1 C      5.9705     6.0000     0.0295     3.8006     3.8006    -0.0000
  2 C      5.9603     6.0000     0.0397     3.9625     3.9625     0.0000
  3 O      8.4276     8.0000    -0.4276     1.8588     1.8588     0.0000
  4 C      5.9529     6.0000     0.0471     4.0067     4.0067     0.0000
  5 C      6.0138     6.0000    -0.0138     3.6372     3.6372    -0.0000
  6 C      6.1688     6.0000    -0.1688     3.9382     3.9382     0.0000
  7 C      6.0433     6.0000    -0.0433     3.7810     3.7810     0.0000
  8 C      6.2307     6.0000    -0.2307     3.9778     3.9778    -0.0000
  9 H      0.8970     1.0000     0.1030     0.9688     0.9688    -0.0000
 10 H      0.8874     1.0000     0.1126     0.9695     0.9695    -0.0000
 11 H      0.8798     1.0000     0.1202     0.9641     0.9641     0.0000
 12 H      0.9149     1.0000     0.0851     0.9599     0.9599     0.0000
 13 H      0.9270     1.0000     0.0730     0.9544     0.9544    -0.0000
 14 H      0.9241     1.0000     0.0759     0.9590     0.9590     0.0000
 15 H      0.9163     1.0000     0.0837     0.9632     0.9632     0.0000
 16 H      0.8972     1.0000     0.1028     0.9708     0.9708    -0.0000
 17 H      0.9028     1.0000     0.0972     0.9824     0.9824     0.0000
 18 H      0.8748     1.0000     0.1252     0.9658     0.9658     0.0000
 19 H      0.9045     1.0000     0.0955     0.9824     0.9824    -0.0000
 20 H      0.8963     1.0000     0.1037     0.9760     0.9760    -0.0000

  Mayer bond orders larger than 0.1
B(  0-C ,  1-C ) :   0.9608 B(  0-C ,  9-H ) :   0.9889 B(  0-C , 10-H ) :   0.9947 
B(  0-C , 11-H ) :   0.9881 B(  1-C ,  2-C ) :   1.0198 B(  1-C ,  5-C ) :   0.8637 
B(  1-C ,  7-C ) :   0.9414 B(  2-C ,  3-O ) :   0.9516 B(  2-C , 12-H ) :   0.9776 
B(  2-C , 13-H ) :   0.9721 B(  3-O ,  4-C ) :   0.9700 B(  4-C ,  5-C ) :   0.9804 
B(  4-C , 14-H ) :   0.9890 B(  4-C , 15-H ) :   0.9649 B(  5-C ,  6-C ) :   0.9071 
B(  5-C ,  8-C ) :   0.9628 B(  6-C ,  7-C ) :   0.9957 B(  6-C , 16-H ) :   0.9877 
B(  6-C , 17-H ) :   0.9869 B(  7-C ,  8-C ) :   0.9710 B(  7-C , 18-H ) :   0.9359 
B(  8-C , 19-H ) :   0.9893 B(  8-C , 20-H ) :   0.9830 

-------
TIMINGS
-------

Total SCF time: 0 days 0 hours 2 min 50 sec 

Total time                  ....     170.313 sec
Sum of individual times     ....     175.303 sec  (102.9%)

Fock matrix formation       ....     168.616 sec  ( 99.0%)
Diagonalization             ....       0.770 sec  (  0.5%)
Density matrix formation    ....       0.049 sec  (  0.0%)
Population analysis         ....       0.180 sec  (  0.1%)
Initial guess               ....       3.567 sec  (  2.1%)
Orbital Transformation      ....       0.000 sec  (  0.0%)
Orbital Orthonormalization  ....       0.000 sec  (  0.0%)
DIIS solution               ....       0.217 sec  (  0.1%)
SOSCF solution              ....       0.318 sec  (  0.2%)

   <<< Auxbasis replaced with dsgdb9nsd_073539.AUXC.tmp (Dim=864) >>> 


------------------------------------------------------------------------------
                              ORCA MP2 CALCULATION
------------------------------------------------------------------------------

Freezing NCore=18 chemical core electrons

   <<< Use J-auxbasis for calculation of Separable RI-J derivative contributions dsgdb9nsd_073539.AUXJ.tmp (Dim=893) >>> 


---------------------
RI-MP2 ENERGY+DENSITY
---------------------
Dimension of the basis                    ...  351
Memory devoted to MP2                     ... 2000 MB   
Data format for buffers                   ... DOUBLE
Compression type for matrix containers    ... UNCOMPRESSED
Overall scaling of the MP2 energy         ...   1.000e+00 Eh
Calculating two index integrals           ... done (    0.018 sec)
Cholesky decomposition of V**-1           ... done (    0.124 sec)

-----------------
RI-TRANSFORMATION (AUX index driven)
-----------------

Dimension of the orbital-basis         ... 351
Dimension of the aux-basis             ... 864
Transformation of internal MOs         ...    0-  33
Transformation of internal/external MOs...    0-  33 to   34- 350
Number Format for Storage              ... Double (8 Byte)
Integral mode                          ... Direct

First Phase: integral generation and transformation of MO indices
  Aux angular momentum 0               ... done (    0.968 sec)
  Aux angular momentum 1               ... done (    1.279 sec)
  Aux angular momentum 2               ... done (    1.357 sec)
  Aux angular momentum 3               ... done (    0.983 sec)
  Aux angular momentum 4               ... done (    0.450 sec)
Closing buffer VIJ ( 0.00 GB; CompressionRatio= 1.94)
Closing buffer VIA ( 0.07 GB; CompressionRatio= 1.00)
  Phase 1 completed in     5.136 sec
Second Phase: sorting and transformation of aux index

IJ-Transformation
Memory available                       ... 1985 MB 
Max. # MO pairs treated in a batch     ... 34    
# of internal orbitals                 ... 34
# batches for internal orbitals        ... 1
Closing buffer IJV ( 0.00 GB; CompressionRatio= 1.00)
(ij|v) transformation done in     0.200 sec

IA-Transformation
Memory available                       ... 1985 MB 
Max. # MO pairs treated in a batch     ... 34    
# of internal orbitals                 ... 34
# batches for internal orbitals        ... 1
Closing buffer IAV ( 0.07 GB; CompressionRatio= 1.00)
(ia|v) transformation done in     1.619 sec

  Phase 2 completed in     2.050 sec
RI-Integral transformation completed in     7.186 sec
Opening buffers                              ... done
Frozen core precalculation                   ... done

Starting loop over batches of integrals:

Operator 0  - window                       ... (  9- 33)x( 34-350)
Operator 0  - Memory available             ...  2000 MB
Operator 0  - Memory needed per MO         ...   4.2 MB
Operator 0  - Number of orbitals per batch ... 25
Operator 0  - Number of batches            ... 1

OPERATOR  0   PASS   0:  MOs     9 ...   33
  Reading integrals       ... ok
  Internal MO  11
  Internal MO  14
  Internal MO  17
  Internal MO  20
  Internal MO  23
  Internal MO  26
  Internal MO  29
  Internal MO  32
Time spent in pair loops =    45.337 sec
Deleting buffer (Ka|jb)[aa] ...done

-----------------------------------------------
 RI-MP2 CORRELATION ENERGY:     -1.555678334 Eh
-----------------------------------------------


---------------------
MP2 DENSITY FORMATION
---------------------

Completing the external part of the density      ... done
Storing the unrelaxed density                    ... done

Calculating G(D)                                 ... done
Completing the Lagrangian                        ... done
Solving the Z-vector equations                   ... 

------------------------------------------------------------------------------
                           ORCA CP-SCF CALCULATION
------------------------------------------------------------------------------

Input orbitals are from        ... dsgdb9nsd_073539.gbw
Input Perturbation             ... dsgdb9nsd_073539.pin.tmp
Wavefunction output            ... dsgdb9nsd_073539.pout.tmp
Perturbation mode              ... Real perturbation
Solver                         ... POPLE
Max. number of iterations      ... 128
Convergence tolerance          ... 1.000e-08
Integral handling              ... Direct
Number of perturbations        ... 1
Number of operators            ... 1
Orbital ranges used for CP-SCF:
 Operator 0:  Orbitals   0... 33  to  34...350
Variables per vector in CP-SCF ... 10778
Number of vectors sought       ... 1
     CP-SCF ITERATION   0: 
     CP-SCF ITERATION   1:      0.000852631
     CP-SCF ITERATION   2:      0.000115310
     CP-SCF ITERATION   3:      0.000006527
     CP-SCF ITERATION   4:      0.000000436
     CP-SCF ITERATION   5:      0.000000050
     CP-SCF ITERATION   6:      0.000000005
done
Finalizing the relaxed density                   ... done
Transforming P to the AO basis                   ... done
Storing the relaxed density                      ... done

                *********************************************
                * UNRELAXED MP2 DENSITY POPULATION ANALYSIS *
                *********************************************

------------------------------------------------------------------------------
                           ORCA POPULATION ANALYSIS
------------------------------------------------------------------------------
Input electron density              ... dsgdb9nsd_073539.pmp2ur
BaseName (.gbw .S,...)              ... dsgdb9nsd_073539

                    ********************************
                    * MULLIKEN POPULATION ANALYSIS *
                    ********************************

-----------------------
MULLIKEN ATOMIC CHARGES
-----------------------
   0 C :   -0.417951
   1 C :    0.023102
   2 C :    0.023025
   3 O :   -0.407172
   4 C :    0.031455
   5 C :   -0.011639
   6 C :   -0.179620
   7 C :   -0.042547
   8 C :   -0.240548
   9 H :    0.106265
  10 H :    0.116333
  11 H :    0.123538
  12 H :    0.088713
  13 H :    0.076538
  14 H :    0.079321
  15 H :    0.087291
  16 H :    0.106655
  17 H :    0.101206
  18 H :    0.128860
  19 H :    0.099715
  20 H :    0.107461
Sum of atomic charges:    0.0000000

--------------------------------
MULLIKEN REDUCED ORBITAL CHARGES
--------------------------------
  0 C s       :     3.280808  s :     3.280808
      pz      :     1.048940  p :     3.024773
      px      :     1.049697
      py      :     0.926136
      dz2     :     0.016332  d :     0.104047
      dxz     :     0.019284
      dyz     :     0.024097
      dx2y2   :     0.017997
      dxy     :     0.026337
      f0      :     0.000870  f :     0.008323
      f+1     :     0.001587
      f-1     :     0.001079
      f+2     :     0.001117
      f-2     :     0.000671
      f+3     :     0.001290
      f-3     :     0.001708
  1 C s       :     3.108850  s :     3.108850
      pz      :     0.950330  p :     2.677884
      px      :     0.852137
      py      :     0.875417
      dz2     :     0.023760  d :     0.174594
      dxz     :     0.032266
      dyz     :     0.034060
      dx2y2   :     0.046264
      dxy     :     0.038244
      f0      :     0.001919  f :     0.015570
      f+1     :     0.001897
      f-1     :     0.001696
      f+2     :     0.002346
      f-2     :     0.001989
      f+3     :     0.003221
      f-3     :     0.002502
  2 C s       :     3.191926  s :     3.191926
      pz      :     0.687984  p :     2.614013
      px      :     0.959438
      py      :     0.966591
      dz2     :     0.036058  d :     0.156507
      dxz     :     0.032934
      dyz     :     0.044274
      dx2y2   :     0.017610
      dxy     :     0.025631
      f0      :     0.003353  f :     0.014530
      f+1     :     0.002649
      f-1     :     0.002985
      f+2     :     0.001314
      f-2     :     0.001064
      f+3     :     0.001538
      f-3     :     0.001626
  3 O s       :     3.775454  s :     3.775454
      pz      :     1.285618  p :     4.561073
      px      :     1.447458
      py      :     1.827997
      dz2     :     0.018252  d :     0.065956
      dxz     :     0.013423
      dyz     :     0.011357
      dx2y2   :     0.013160
      dxy     :     0.009765
      f0      :     0.000937  f :     0.004689
      f+1     :     0.000670
      f-1     :     0.000669
      f+2     :     0.000692
      f-2     :     0.000506
      f+3     :     0.000664
      f-3     :     0.000551
  4 C s       :     3.184069  s :     3.184069
      pz      :     0.916796  p :     2.612534
      px      :     0.704195
      py      :     0.991544
      dz2     :     0.023353  d :     0.157369
      dxz     :     0.029736
      dyz     :     0.039393
      dx2y2   :     0.031488
      dxy     :     0.033399
      f0      :     0.001672  f :     0.014572
      f+1     :     0.002642
      f-1     :     0.001027
      f+2     :     0.003332
      f-2     :     0.001976
      f+3     :     0.001530
      f-3     :     0.002393
  5 C s       :     3.148851  s :     3.148851
      pz      :     0.815462  p :     2.671776
      px      :     0.917301
      py      :     0.939013
      dz2     :     0.034729  d :     0.173453
      dxz     :     0.039651
      dyz     :     0.040990
      dx2y2   :     0.030698
      dxy     :     0.027384
      f0      :     0.002588  f :     0.017559
      f+1     :     0.003479
      f-1     :     0.002826
      f+2     :     0.002909
      f-2     :     0.002402
      f+3     :     0.001748
      f-3     :     0.001607
  6 C s       :     3.211684  s :     3.211684
      pz      :     0.934598  p :     2.843691
      px      :     0.900887
      py      :     1.008206
      dz2     :     0.023703  d :     0.113342
      dxz     :     0.024903
      dyz     :     0.016177
      dx2y2   :     0.026005
      dxy     :     0.022554
      f0      :     0.001244  f :     0.010903
      f+1     :     0.001790
      f-1     :     0.001178
      f+2     :     0.001429
      f-2     :     0.001451
      f+3     :     0.001784
      f-3     :     0.002028
  7 C s       :     3.103977  s :     3.103977
      pz      :     0.954472  p :     2.782946
      px      :     0.894059
      py      :     0.934415
      dz2     :     0.034961  d :     0.141110
      dxz     :     0.030860
      dyz     :     0.027191
      dx2y2   :     0.024074
      dxy     :     0.024024
      f0      :     0.002755  f :     0.014513
      f+1     :     0.002901
      f-1     :     0.002516
      f+2     :     0.001810
      f-2     :     0.001804
      f+3     :     0.001352
      f-3     :     0.001377
  8 C s       :     3.232028  s :     3.232028
      pz      :     0.959502  p :     2.885109
      px      :     1.036196
      py      :     0.889410
      dz2     :     0.020328  d :     0.112182
      dxz     :     0.015340
      dyz     :     0.029359
      dx2y2   :     0.010890
      dxy     :     0.036266
      f0      :     0.001284  f :     0.011229
      f+1     :     0.000854
      f-1     :     0.001879
      f+2     :     0.001639
      f-2     :     0.001827
      f+3     :     0.001723
      f-3     :     0.002024
  9 H s       :     0.868100  s :     0.868100
      pz      :     0.005039  p :     0.025635
      px      :     0.012951
      py      :     0.007645
 10 H s       :     0.858789  s :     0.858789
      pz      :     0.011207  p :     0.024879
      px      :     0.007971
      py      :     0.005701
 11 H s       :     0.851543  s :     0.851543
      pz      :     0.011387  p :     0.024919
      px      :     0.006983
      py      :     0.006550
 12 H s       :     0.886533  s :     0.886533
      pz      :     0.003800  p :     0.024754
      px      :     0.011664
      py      :     0.009290
 13 H s       :     0.898256  s :     0.898256
      pz      :     0.006699  p :     0.025205
      px      :     0.005695
      py      :     0.012811
 14 H s       :     0.896431  s :     0.896431
      pz      :     0.008009  p :     0.024248
      px      :     0.003570
      py      :     0.012670
 15 H s       :     0.888120  s :     0.888120
      pz      :     0.009351  p :     0.024589
      px      :     0.003882
      py      :     0.011356
 16 H s       :     0.866964  s :     0.866964
      pz      :     0.005086  p :     0.026381
      px      :     0.005213
      py      :     0.016081
 17 H s       :     0.873150  s :     0.873150
      pz      :     0.005352  p :     0.025644
      px      :     0.012997
      py      :     0.007295
 18 H s       :     0.846087  s :     0.846087
      pz      :     0.015379  p :     0.025053
      px      :     0.005058
      py      :     0.004615
 19 H s       :     0.874665  s :     0.874665
      pz      :     0.005450  p :     0.025620
      px      :     0.011554
      py      :     0.008615
 20 H s       :     0.866101  s :     0.866101
      pz      :     0.005534  p :     0.026438
      px      :     0.012110
      py      :     0.008794


                     *******************************
                     * LOEWDIN POPULATION ANALYSIS *
                     *******************************

----------------------
LOEWDIN ATOMIC CHARGES
----------------------
   0 C :   -0.248677
   1 C :   -0.190092
   2 C :   -0.219298
   3 O :    0.087915
   4 C :   -0.238411
   5 C :   -0.179339
   6 C :   -0.151356
   7 C :   -0.128656
   8 C :   -0.151628
   9 H :    0.113765
  10 H :    0.119296
  11 H :    0.120997
  12 H :    0.118959
  13 H :    0.113284
  14 H :    0.116732
  15 H :    0.119375
  16 H :    0.117919
  17 H :    0.120604
  18 H :    0.114657
  19 H :    0.120772
  20 H :    0.123181

-------------------------------
LOEWDIN REDUCED ORBITAL CHARGES
-------------------------------
  0 C s       :     2.814806  s :     2.814806
      pz      :     1.044436  p :     3.094961
      px      :     1.043297
      py      :     1.007228
      dz2     :     0.046197  d :     0.308796
      dxz     :     0.049990
      dyz     :     0.071569
      dx2y2   :     0.057698
      dxy     :     0.083343
      f0      :     0.002683  f :     0.030114
      f+1     :     0.004187
      f-1     :     0.004463
      f+2     :     0.004668
      f-2     :     0.002847
      f+3     :     0.005221
      f-3     :     0.006046
  1 C s       :     2.684721  s :     2.684721
      pz      :     0.917570  p :     2.803790
      px      :     0.926291
      py      :     0.959929
      dz2     :     0.090433  d :     0.628253
      dxz     :     0.107947
      dyz     :     0.100356
      dx2y2   :     0.190038
      dxy     :     0.139480
      f0      :     0.008574  f :     0.073328
      f+1     :     0.009328
      f-1     :     0.006713
      f+2     :     0.012037
      f-2     :     0.010138
      f+3     :     0.016613
      f-3     :     0.009924
  2 C s       :     2.788179  s :     2.788179
      pz      :     0.790356  p :     2.816484
      px      :     1.002504
      py      :     1.023624
      dz2     :     0.142010  d :     0.539617
      dxz     :     0.100999
      dyz     :     0.137999
      dx2y2   :     0.064351
      dxy     :     0.094258
      f0      :     0.020004  f :     0.075018
      f+1     :     0.016134
      f-1     :     0.014987
      f+2     :     0.007866
      f-2     :     0.004492
      f+3     :     0.006228
      f-3     :     0.005307
  3 O s       :     3.305309  s :     3.305309
      pz      :     1.319730  p :     4.475464
      px      :     1.447530
      py      :     1.708204
      dz2     :     0.036231  d :     0.122614
      dxz     :     0.031045
      dyz     :     0.020063
      dx2y2   :     0.020219
      dxy     :     0.015056
      f0      :     0.001664  f :     0.008699
      f+1     :     0.001856
      f-1     :     0.001279
      f+2     :     0.001103
      f-2     :     0.000898
      f+3     :     0.000999
      f-3     :     0.000900
  4 C s       :     2.785589  s :     2.785589
      pz      :     0.971047  p :     2.822807
      px      :     0.825392
      py      :     1.026368
      dz2     :     0.076142  d :     0.552563
      dxz     :     0.119172
      dyz     :     0.139392
      dx2y2   :     0.126520
      dxy     :     0.091336
      f0      :     0.011732  f :     0.077451
      f+1     :     0.017028
      f-1     :     0.003475
      f+2     :     0.012747
      f-2     :     0.009417
      f+3     :     0.009112
      f-3     :     0.013941
  5 C s       :     2.680405  s :     2.680405
      pz      :     0.925210  p :     2.760143
      px      :     0.928247
      py      :     0.906685
      dz2     :     0.165829  d :     0.653453
      dxz     :     0.156121
      dyz     :     0.126074
      dx2y2   :     0.110965
      dxy     :     0.094464
      f0      :     0.012950  f :     0.085338
      f+1     :     0.013494
      f-1     :     0.013219
      f+2     :     0.016090
      f-2     :     0.014787
      f+3     :     0.008593
      f-3     :     0.006205
  6 C s       :     2.772542  s :     2.772542
      pz      :     0.959680  p :     2.914505
      px      :     0.951981
      py      :     1.002845
      dz2     :     0.082585  d :     0.419396
      dxz     :     0.076126
      dyz     :     0.046031
      dx2y2   :     0.116661
      dxy     :     0.097992
      f0      :     0.004919  f :     0.044913
      f+1     :     0.008055
      f-1     :     0.004905
      f+2     :     0.006661
      f-2     :     0.007368
      f+3     :     0.006834
      f-3     :     0.006171
  7 C s       :     2.732064  s :     2.732064
      pz      :     0.951696  p :     2.811138
      px      :     0.913611
      py      :     0.945831
      dz2     :     0.177727  d :     0.520400
      dxz     :     0.103776
      dyz     :     0.080507
      dx2y2   :     0.077047
      dxy     :     0.081344
      f0      :     0.009141  f :     0.065055
      f+1     :     0.011125
      f-1     :     0.010443
      f+2     :     0.011029
      f-2     :     0.011580
      f+3     :     0.006538
      f-3     :     0.005199
  8 C s       :     2.766114  s :     2.766114
      pz      :     0.970903  p :     2.919844
      px      :     1.002618
      py      :     0.946323
      dz2     :     0.073842  d :     0.419486
      dxz     :     0.040286
      dyz     :     0.091328
      dx2y2   :     0.047067
      dxy     :     0.166964
      f0      :     0.005442  f :     0.046183
      f+1     :     0.002942
      f-1     :     0.008674
      f+2     :     0.009285
      f-2     :     0.006930
      f+3     :     0.006565
      f-3     :     0.006344
  9 H s       :     0.819827  s :     0.819827
      pz      :     0.014153  p :     0.066407
      px      :     0.033920
      py      :     0.018334
 10 H s       :     0.816031  s :     0.816031
      pz      :     0.028834  p :     0.064673
      px      :     0.021301
      py      :     0.014538
 11 H s       :     0.813785  s :     0.813785
      pz      :     0.029983  p :     0.065218
      px      :     0.018931
      py      :     0.016303
 12 H s       :     0.818592  s :     0.818592
      pz      :     0.009940  p :     0.062449
      px      :     0.027384
      py      :     0.025125
 13 H s       :     0.823061  s :     0.823061
      pz      :     0.016423  p :     0.063655
      px      :     0.014574
      py      :     0.032658
 14 H s       :     0.821661  s :     0.821661
      pz      :     0.019396  p :     0.061607
      px      :     0.009577
      py      :     0.032634
 15 H s       :     0.818543  s :     0.818543
      pz      :     0.021991  p :     0.062082
      px      :     0.010393
      py      :     0.029699
 16 H s       :     0.815395  s :     0.815395
      pz      :     0.013862  p :     0.066687
      px      :     0.012791
      py      :     0.040034
 17 H s       :     0.814625  s :     0.814625
      pz      :     0.014474  p :     0.064771
      px      :     0.029823
      py      :     0.020474
 18 H s       :     0.820369  s :     0.820369
      pz      :     0.038914  p :     0.064973
      px      :     0.013624
      py      :     0.012435
 19 H s       :     0.814586  s :     0.814586
      pz      :     0.015064  p :     0.064642
      px      :     0.030283
      py      :     0.019295
 20 H s       :     0.809684  s :     0.809684
      pz      :     0.015430  p :     0.067135
[...]
      dz2     :     0.024531  d :     0.150254
      dxz     :     0.024659
      dyz     :     0.036372
      dx2y2   :     0.028637
      dxy     :     0.036054
      f0      :     0.001655  f :     0.013859
      f+1     :     0.002441
      f-1     :     0.001028
      f+2     :     0.003044
      f-2     :     0.001997
      f+3     :     0.001483
      f-3     :     0.002211
  5 C s       :     3.213078  s :     3.213078
      pz      :     0.823124  p :     2.673686
      px      :     0.919670
      py      :     0.930892
      dz2     :     0.037544  d :     0.165856
      dxz     :     0.036224
      dyz     :     0.038369
      dx2y2   :     0.028188
      dxy     :     0.025531
      f0      :     0.002603  f :     0.016982
      f+1     :     0.003250
      f-1     :     0.002827
      f+2     :     0.002747
      f-2     :     0.002331
      f+3     :     0.001770
      f-3     :     0.001453
  6 C s       :     3.204457  s :     3.204457
      pz      :     0.937218  p :     2.860939
      px      :     0.902805
      py      :     1.020916
      dz2     :     0.021174  d :     0.102538
      dxz     :     0.020431
      dyz     :     0.015609
      dx2y2   :     0.024326
      dxy     :     0.020997
      f0      :     0.001220  f :     0.010452
      f+1     :     0.001659
      f-1     :     0.001099
      f+2     :     0.001375
      f-2     :     0.001368
      f+3     :     0.001817
      f-3     :     0.001914
  7 C s       :     3.176909  s :     3.176909
      pz      :     0.963826  p :     2.793040
      px      :     0.899236
      py      :     0.929978
      dz2     :     0.035918  d :     0.132720
      dxz     :     0.028625
      dyz     :     0.024815
      dx2y2   :     0.021493
      dxy     :     0.021869
      f0      :     0.002666  f :     0.013990
      f+1     :     0.002811
      f-1     :     0.002523
      f+2     :     0.001715
      f-2     :     0.001717
      f+3     :     0.001350
      f-3     :     0.001207
  8 C s       :     3.214921  s :     3.214921
      pz      :     0.959019  p :     2.893200
      px      :     1.051013
      py      :     0.883169
      dz2     :     0.019105  d :     0.101476
      dxz     :     0.015310
      dyz     :     0.023267
      dx2y2   :     0.010410
      dxy     :     0.033385
      f0      :     0.001264  f :     0.010746
      f+1     :     0.000825
      f-1     :     0.001728
      f+2     :     0.001493
      f-2     :     0.001752
      f+3     :     0.001762
      f-3     :     0.001923
  9 H s       :     0.849889  s :     0.849889
      pz      :     0.005318  p :     0.024793
      px      :     0.011919
      py      :     0.007555
 10 H s       :     0.834552  s :     0.834552
      pz      :     0.010412  p :     0.023959
      px      :     0.007742
      py      :     0.005805
 11 H s       :     0.828438  s :     0.828438
      pz      :     0.010540  p :     0.023999
      px      :     0.006900
      py      :     0.006559
 12 H s       :     0.870255  s :     0.870255
      pz      :     0.004013  p :     0.023685
      px      :     0.010891
      py      :     0.008781
 13 H s       :     0.881835  s :     0.881835
      pz      :     0.006515  p :     0.024162
      px      :     0.005882
      py      :     0.011764
 14 H s       :     0.881247  s :     0.881247
      pz      :     0.007707  p :     0.023219
      px      :     0.003878
      py      :     0.011634
 15 H s       :     0.869600  s :     0.869600
      pz      :     0.008895  p :     0.023503
      px      :     0.004114
      py      :     0.010495
 16 H s       :     0.855283  s :     0.855283
      pz      :     0.005392  p :     0.025523
      px      :     0.005432
      py      :     0.014699
 17 H s       :     0.860128  s :     0.860128
      pz      :     0.005601  p :     0.024726
      px      :     0.012093
      py      :     0.007031
 18 H s       :     0.843329  s :     0.843329
      pz      :     0.014112  p :     0.024285
      px      :     0.005281
      py      :     0.004892
 19 H s       :     0.860993  s :     0.860993
      pz      :     0.005669  p :     0.024724
      px      :     0.010730
      py      :     0.008326
 20 H s       :     0.853254  s :     0.853254
      pz      :     0.005752  p :     0.025570
      px      :     0.011285
      py      :     0.008533


                     *******************************
                     * LOEWDIN POPULATION ANALYSIS *
                     *******************************

----------------------
LOEWDIN ATOMIC CHARGES
----------------------
   0 C :   -0.272280
   1 C :   -0.198724
   2 C :   -0.250808
   3 O :    0.124647
   4 C :   -0.269172
   5 C :   -0.188184
   6 C :   -0.166665
   7 C :   -0.139047
   8 C :   -0.165712
   9 H :    0.122880
  10 H :    0.130130
  11 H :    0.131126
  12 H :    0.127290
  13 H :    0.120590
  14 H :    0.124579
  15 H :    0.128433
  16 H :    0.126041
  17 H :    0.129474
  18 H :    0.123576
  19 H :    0.130060
  20 H :    0.131767

-------------------------------
LOEWDIN REDUCED ORBITAL CHARGES
-------------------------------
  0 C s       :     2.820428  s :     2.820428
      pz      :     1.059860  p :     3.127423
      px      :     1.058350
      py      :     1.009214
      dz2     :     0.042489  d :     0.294817
      dxz     :     0.045294
      dyz     :     0.070971
      dx2y2   :     0.054379
      dxy     :     0.081684
      f0      :     0.002672  f :     0.029612
      f+1     :     0.004016
      f-1     :     0.004398
      f+2     :     0.004624
      f-2     :     0.002755
      f+3     :     0.005225
      f-3     :     0.005922
  1 C s       :     2.693834  s :     2.693834
      pz      :     0.916399  p :     2.803884
      px      :     0.925339
      py      :     0.962145
      dz2     :     0.089151  d :     0.627997
      dxz     :     0.106479
      dyz     :     0.101780
      dx2y2   :     0.189501
      dxy     :     0.141086
      f0      :     0.008617  f :     0.073009
      f+1     :     0.009140
      f-1     :     0.006614
      f+2     :     0.012178
      f-2     :     0.010124
      f+3     :     0.016729
      f-3     :     0.009607
  2 C s       :     2.796914  s :     2.796914
      pz      :     0.802657  p :     2.846533
      px      :     1.007011
      py      :     1.036865
      dz2     :     0.139172  d :     0.533983
      dxz     :     0.099870
      dyz     :     0.140054
      dx2y2   :     0.063695
      dxy     :     0.091193
      f0      :     0.019756  f :     0.073378
      f+1     :     0.015784
      f-1     :     0.014414
      f+2     :     0.007690
      f-2     :     0.004412
      f+3     :     0.006127
      f-3     :     0.005194
  3 O s       :     3.311809  s :     3.311809
      pz      :     1.310971  p :     4.430037
      px      :     1.431298
      py      :     1.687768
      dz2     :     0.036354  d :     0.124586
      dxz     :     0.031643
      dyz     :     0.020772
      dx2y2   :     0.020276
      dxy     :     0.015541
      f0      :     0.001727  f :     0.008922
      f+1     :     0.001912
      f-1     :     0.001306
      f+2     :     0.001136
      f-2     :     0.000901
      f+3     :     0.001017
      f-3     :     0.000923
  4 C s       :     2.794115  s :     2.794115
      pz      :     0.977419  p :     2.853331
      px      :     0.834742
      py      :     1.041171
      dz2     :     0.076387  d :     0.545989
      dxz     :     0.114914
      dyz     :     0.136449
      dx2y2   :     0.123227
      dxy     :     0.095011
      f0      :     0.011727  f :     0.075737
      f+1     :     0.016774
      f-1     :     0.003410
      f+2     :     0.012337
      f-2     :     0.009140
      f+3     :     0.008951
      f-3     :     0.013399
  5 C s       :     2.689450  s :     2.689450
      pz      :     0.924348  p :     2.761993
      px      :     0.926749
      py      :     0.910896
      dz2     :     0.166034  d :     0.651825
      dxz     :     0.156245
      dyz     :     0.126142
      dx2y2   :     0.109246
      dxy     :     0.094159
      f0      :     0.012758  f :     0.084917
      f+1     :     0.013071
      f-1     :     0.013090
      f+2     :     0.016212
      f-2     :     0.014947
      f+3     :     0.008691
      f-3     :     0.006148
  6 C s       :     2.780630  s :     2.780630
      pz      :     0.964282  p :     2.932970
      px      :     0.955113
      py      :     1.013575
      dz2     :     0.079249  d :     0.408923
      dxz     :     0.072773
      dyz     :     0.046144
      dx2y2   :     0.114491
      dxy     :     0.096265
      f0      :     0.004888  f :     0.044143
      f+1     :     0.007860
      f-1     :     0.004845
      f+2     :     0.006641
      f-2     :     0.007316
      f+3     :     0.006592
      f-3     :     0.006001
  7 C s       :     2.740141  s :     2.740141
      pz      :     0.955716  p :     2.823011
      px      :     0.918196
      py      :     0.949100
      dz2     :     0.173944  d :     0.511432
      dxz     :     0.101750
      dyz     :     0.080156
      dx2y2   :     0.075717
      dxy     :     0.079866
      f0      :     0.008840  f :     0.064464
      f+1     :     0.010714
      f-1     :     0.010289
      f+2     :     0.011181
      f-2     :     0.011679
      f+3     :     0.006654
      f-3     :     0.005108
  8 C s       :     2.774260  s :     2.774260
      pz      :     0.974153  p :     2.936068
      px      :     1.015109
      py      :     0.946806
      dz2     :     0.072384  d :     0.409874
      dxz     :     0.040761
      dyz     :     0.086115
      dx2y2   :     0.047389
      dxy     :     0.163225
      f0      :     0.005432  f :     0.045509
      f+1     :     0.002898
      f-1     :     0.008536
      f+2     :     0.009335
      f-2     :     0.006741
      f+3     :     0.006370
      f-3     :     0.006198
  9 H s       :     0.809476  s :     0.809476
      pz      :     0.014780  p :     0.067644
      px      :     0.034018
      py      :     0.018846
 10 H s       :     0.803944  s :     0.803944
      pz      :     0.029067  p :     0.065926
      px      :     0.021749
      py      :     0.015110
 11 H s       :     0.802449  s :     0.802449
      pz      :     0.030151  p :     0.066424
      px      :     0.019401
      py      :     0.016872
 12 H s       :     0.809137  s :     0.809137
      pz      :     0.010623  p :     0.063573
      px      :     0.027533
      py      :     0.025417
 13 H s       :     0.814464  s :     0.814464
      pz      :     0.017081  p :     0.064946
      px      :     0.015133
      py      :     0.032732
 14 H s       :     0.812537  s :     0.812537
      pz      :     0.019804  p :     0.062884
      px      :     0.010325
      py      :     0.032756
 15 H s       :     0.808341  s :     0.808341
      pz      :     0.022369  p :     0.063226
      px      :     0.011090
      py      :     0.029767
 16 H s       :     0.806074  s :     0.806074
      pz      :     0.014515  p :     0.067884
      px      :     0.013374
      py      :     0.039996
 17 H s       :     0.804465  s :     0.804465
      pz      :     0.015112  p :     0.066061
      px      :     0.030157
      py      :     0.020791
 18 H s       :     0.809941  s :     0.809941
      pz      :     0.039140  p :     0.066483
      px      :     0.014290
      py      :     0.013053
 19 H s       :     0.803917  s :     0.803917
      pz      :     0.015656  p :     0.066023
      px      :     0.030527
      py      :     0.019839
 20 H s       :     0.799801  s :     0.799801
      pz      :     0.016086  p :     0.068433
      px      :     0.032065
      py      :     0.020281


                      *****************************
                      * MAYER POPULATION ANALYSIS *
                      *****************************

  NA   - Mulliken gross atomic population
  ZA   - Total nuclear charge
  QA   - Mulliken gross atomic charge
  VA   - Mayer's total valence
  BVA  - Mayer's bonded valence
  FA   - Mayer's free valence

  ATOM       NA         ZA         QA         VA         BVA        FA
  0 C      6.4674     6.0000    -0.4674     4.0243     3.7163     0.3081
  1 C      5.9615     6.0000     0.0385     3.9172     3.5420     0.3752
  2 C      6.0493     6.0000    -0.0493     4.0989     3.7861     0.3129
  3 O      8.3163     8.0000    -0.3163     2.2991     1.8716     0.4274
  4 C      6.0396     6.0000    -0.0396     4.1401     3.8338     0.3063
  5 C      6.0696     6.0000    -0.0696     3.8327     3.4641     0.3685
  6 C      6.1784     6.0000    -0.1784     4.0301     3.6881     0.3420
  7 C      6.1167     6.0000    -0.1167     3.9311     3.5812     0.3499
  8 C      6.2203     6.0000    -0.2203     4.0588     3.7158     0.3431
  9 H      0.8747     1.0000     0.1253     0.9776     0.9273     0.0503
 10 H      0.8585     1.0000     0.1415     0.9700     0.9208     0.0493
 11 H      0.8524     1.0000     0.1476     0.9664     0.9168     0.0496
 12 H      0.8939     1.0000     0.1061     0.9574     0.9065     0.0510
 13 H      0.9060     1.0000     0.0940     0.9510     0.8994     0.0516
 14 H      0.9045     1.0000     0.0955     0.9554     0.9039     0.0515
 15 H      0.8931     1.0000     0.1069     0.9602     0.9099     0.0503
 16 H      0.8808     1.0000     0.1192     0.9766     0.9265     0.0501
 17 H      0.8849     1.0000     0.1151     0.9852     0.9347     0.0506
 18 H      0.8676     1.0000     0.1324     0.9731     0.9224     0.0507
 19 H      0.8857     1.0000     0.1143     0.9853     0.9348     0.0505
 20 H      0.8788     1.0000     0.1212     0.9803     0.9299     0.0505

  Mayer bond orders larger than 0.1
B(  0-C ,  1-C ) :   0.9097 B(  0-C ,  9-H ) :   0.9326 B(  0-C , 10-H ) :   0.9407 
B(  0-C , 11-H ) :   0.9329 B(  1-C ,  2-C ) :   0.9662 B(  1-C ,  5-C ) :   0.7822 
B(  1-C ,  7-C ) :   0.8739 B(  2-C ,  3-O ) :   0.9545 B(  2-C , 12-H ) :   0.9152 
B(  2-C , 13-H ) :   0.9061 B(  3-O ,  4-C ) :   0.9697 B(  4-C ,  5-C ) :   0.9435 
B(  4-C , 14-H ) :   0.9255 B(  4-C , 15-H ) :   0.9037 B(  5-C ,  6-C ) :   0.8577 
B(  5-C ,  8-C ) :   0.8962 B(  6-C ,  7-C ) :   0.9211 B(  6-C , 16-H ) :   0.9276 
B(  6-C , 17-H ) :   0.9277 B(  7-C ,  8-C ) :   0.9126 B(  7-C , 18-H ) :   0.8894 
B(  8-C , 19-H ) :   0.9306 B(  8-C , 20-H ) :   0.9194 


-------
TIMINGS
-------

Total time                : 1086.188 sec
Integral trafo            :    7.195 sec (  0.7%)
FC preparation            :    4.013 sec (  0.4%)
I/O of integrals          :    0.055 sec (  0.0%)
K(i,j) Operators          :   10.381 sec (  1.0%)
T(i,j) pair energies      :    0.920 sec (  0.1%)
V-calculation             :    0.018 sec (  0.0%)
V**(-1/2)                 :    0.124 sec (  0.0%)
Gamma(ia|P)               :   10.120 sec (  0.9%)
Gamma-Trafo               :    1.651 sec (  0.2%)
D(virtual)                :    3.891 sec (  0.4%)
D(internal)               :    3.542 sec (  0.3%)
W(virtual)                :    0.000 sec (  0.0%)
W(internal)               :    0.000 sec (  0.0%)
L(virtual)                :   14.153 sec (  1.3%)
L(internal)               :    0.288 sec (  0.0%)
G(D)                      :  140.832 sec ( 13.0%)
G(Z)                      :    0.000 sec (  0.0%)
Z-Vector Solution         :  888.203 sec ( 81.8%)
3-Index Derivative        :    0.000 sec (  0.0%)
2-Index Derivative        :    0.000 sec (  0.0%)
Separable Gradient (RIJ)  :    0.000 sec (  0.0%)
Separable Gradient (X)    :    0.000 sec (  0.0%)


---------------------------------------
MP2 TOTAL ENERGY:     -386.346596907 Eh
---------------------------------------

-------------------------   --------------------
FINAL SINGLE POINT ENERGY      -386.346596907077
-------------------------   --------------------


                            ***************************************
                            *     ORCA property calculations      *
                            ***************************************

                                    ---------------------
                                    Active property flags
                                    ---------------------
   (+) Dipole Moment


------------------------------------------------------------------------------
                       ORCA ELECTRIC PROPERTIES CALCULATION
------------------------------------------------------------------------------

Dipole Moment Calculation                       ... on
Quadrupole Moment Calculation                   ... off
Polarizability Calculation                      ... off
GBWName                                         ... dsgdb9nsd_073539.gbw
Electron density file                           ... dsgdb9nsd_073539.scfp.tmp

-------------
DIPOLE MOMENT
-------------
                                X             Y             Z
Electronic contribution:     -1.32860      -2.45756       1.61138
Nuclear contribution   :      1.94687       2.66572      -1.99476
                        -----------------------------------------
Total Dipole Moment    :      0.61827       0.20817      -0.38338
                        -----------------------------------------
Magnitude (a.u.)       :      0.75668
Magnitude (Debye)      :      1.92334


                         *** MP2 UNRELAXED DENSITY ***

------------------------------------------------------------------------------
                       ORCA ELECTRIC PROPERTIES CALCULATION
------------------------------------------------------------------------------

Dipole Moment Calculation                       ... on
Quadrupole Moment Calculation                   ... off
Polarizability Calculation                      ... off
GBWName                                         ... dsgdb9nsd_073539.gbw
Electron density file                           ... dsgdb9nsd_073539.pmp2ur

-------------
DIPOLE MOMENT
-------------
                                X             Y             Z
Electronic contribution:     -1.34931      -2.46271       1.62342
Nuclear contribution   :      1.94687       2.66572      -1.99476
                        -----------------------------------------
Total Dipole Moment    :      0.59757       0.20301      -0.37134
                        -----------------------------------------
Magnitude (a.u.)       :      0.73225
Magnitude (Debye)      :      1.86123


                           *** MP2 RELAXED DENSITY ***

------------------------------------------------------------------------------
                       ORCA ELECTRIC PROPERTIES CALCULATION
------------------------------------------------------------------------------

Dipole Moment Calculation                       ... on
Quadrupole Moment Calculation                   ... off
Polarizability Calculation                      ... off
GBWName                                         ... dsgdb9nsd_073539.gbw
Electron density file                           ... dsgdb9nsd_073539.pmp2re

-------------
DIPOLE MOMENT
-------------
                                X             Y             Z
Electronic contribution:     -1.39106      -2.45977       1.64148
Nuclear contribution   :      1.94687       2.66572      -1.99476
                        -----------------------------------------
Total Dipole Moment    :      0.55581       0.20596      -0.35328
                        -----------------------------------------
Magnitude (a.u.)       :      0.69004
Magnitude (Debye)      :      1.75393


Timings for individual modules:

Sum of individual times         ...     1260.873 sec (=  21.015 min)
GTO integral calculation        ...        0.577 sec (=   0.010 min)   0.0 %
SCF iterations                  ...      173.957 sec (=   2.899 min)  13.8 %
MP2 module                      ...     1086.339 sec (=  18.106 min)  86.2 %
                             ****ORCA TERMINATED NORMALLY****
TOTAL RUN TIME: 0 days 0 hours 21 minutes 1 seconds 413 msec
