
                                 *****************
                                 * O   R   C   A *
                                 *****************

           --- An Ab Initio, DFT and Semiempirical electronic structure package ---

                  #######################################################
                  #                        -***-                        #
                  #  Department of molecular theory and spectroscopy    #
                  #              Directorship: Frank Neese              #
                  # Max Planck Institute for Chemical Energy Conversion #
                  #                  D-45470 Muelheim/Ruhr              #
                  #                       Germany                       #
                  #                                                     #
                  #                  All rights reserved                #
                  #                        -***-                        #
                  #######################################################


                         Program Version 3.0.3 - RELEASE   -


 With contributions from (in alphabetic order):
   Ute Becker             : Parallelization
   Dmytro Bykov           : SCF Hessian
   Dmitry Ganyushin       : Spin-Orbit,Spin-Spin,Magnetic field MRCI
   Andreas Hansen         : Spin unrestricted coupled pair/coupled cluster methods
   Dimitrios Liakos       : Extrapolation schemes; parallel MDCI
   Robert Izsak           : Overlap fitted RIJCOSX, COSX-SCS-MP3
   Christian Kollmar      : KDIIS, OOCD, Brueckner-CCSD(T), CCSD density
   Simone Kossmann        : Meta GGA functionals, TD-DFT gradient, OOMP2, MP2 Hessian
   Taras Petrenko         : DFT Hessian,TD-DFT gradient, ASA and ECA modules, normal mode analysis, Resonance Raman, ABS, FL, XAS/XES, NRVS
   Christoph Reimann      : Effective Core Potentials
   Michael Roemelt        : Restricted open shell CIS
   Christoph Riplinger    : Improved optimizer, TS searches, QM/MM, DLPNO-CCSD
   Barbara Sandhoefer     : DKH picture change effects
   Igor Schapiro          : Molecular dynamics
   Kantharuban Sivalingam : CASSCF convergence, NEVPT2
   Boris Wezisla          : Elementary symmetry handling
   Frank Wennmohs         : Technical directorship


 We gratefully acknowledge several colleagues who have allowed us to
 interface, adapt or use parts of their codes:
   Stefan Grimme, W. Hujo, H. Kruse, T. Risthaus : VdW corrections, initial TS optimization,
                                                   DFT functionals, gCP
   Ed Valeev                                     : LibInt (2-el integral package), F12 methods
   Garnet Chan, S. Sharma, R. Olivares           : DMRG
   Ulf Ekstrom                                   : XCFun DFT Library
   Mihaly Kallay                                 : mrcc  (arbitrary order and MRCC methods)
   Andreas Klamt, Michael Diedenhofen            : otool_cosmo (COSMO solvation model)
   Frank Weinhold                                : gennbo (NPA and NBO analysis)
   Christopher J. Cramer and Donald G. Truhlar   : smd solvation model


 Your calculation uses the libint2 library for the computation of 2-el integrals
 For citations please refer to: http://libint.valeyev.net

 This ORCA versions uses:
   CBLAS   interface :  Fast vector & matrix operations
   LAPACKE interface :  Fast linear algebra routines
   SCALAPACK package :  Parallel linear algebra routines


Your calculation utilizes the basis: Ahlrichs-TZV
Cite in your paper:
H - Kr: A. Schaefer, H. Horn and R. Ahlrichs, J. Chem. Phys. 97, 2571 (1992).

The def2-TZV basis will be loaded
Cite in your paper:
 	F. Weigend, R. Ahlrichs, Phys. Chem. Chem. Phys. 2005, 7, 3297.

================================================================================
                                        WARNINGS
                       Please study these warnings very carefully!
================================================================================
Now building the actual basis set


INFO   : the flag for use of LIBINT has been found!

================================================================================
                                       INPUT FILE
================================================================================
NAME = dsgdb9nsd_097777.inp
|  1> ! RI-MP2 RIJK def2-TZVP def2-TZVP/C def2-TZVP/JK TIGHTSCF
|  2> % maxcore 2000
|  3> % mp2 density relaxed end
|  4> *xyz 0 1
|  5>  C        0.3391789519     1.3828226425     0.3050109338 
|  6>  C       -0.4091260769     0.2158509826    -0.3650935903 
|  7>  C        0.3279789894    -0.3828173656    -1.4724911146 
|  8>  C        0.9585566202    -0.8670310470    -2.3784185917 
|  9>  C        1.6862074264    -1.4380304159    -3.4718393626 
| 10>  C        3.1417801654    -1.8212501701    -3.3233323306 
| 11>  C        2.1099920192    -2.9201646263    -3.4592217311 
| 12>  C        1.7930952594    -3.7688724546    -2.3513993252 
| 13>  C        1.5250100951    -4.4997736060    -1.4348109771 
| 14>  H        1.2992279968     1.0481324157     0.7072308598 
| 15>  H        0.5360448383     2.1823454695    -0.4144200918 
| 16>  H       -0.2540698961     1.7958966400     1.1264804390 
| 17>  H       -0.6272299723    -0.5573924706     0.3828770889 
| 18>  H       -1.3850108884     0.5658858082    -0.7260888086 
| 19>  H        1.3951776672    -1.0791751195    -4.4553756701 
| 20>  H        3.8037565840    -1.6439347609    -4.1632926035 
| 21>  H        3.5861182415    -1.6860351576    -2.3452217493 
| 22>  H        2.0594716327    -3.4034786761    -4.4306425198 
| 23>  H        1.2869257162    -5.1389696282    -0.6215097353 
| 24> *
| 25> 
| 26>                          ****END OF INPUT****
================================================================================

                       ****************************
                       * Single Point Calculation *
                       ****************************

---------------------------------
CARTESIAN COORDINATES (ANGSTROEM)
---------------------------------
  C      0.339179    1.382823    0.305011
  C     -0.409126    0.215851   -0.365094
  C      0.327979   -0.382817   -1.472491
  C      0.958557   -0.867031   -2.378419
  C      1.686207   -1.438030   -3.471839
  C      3.141780   -1.821250   -3.323332
  C      2.109992   -2.920165   -3.459222
  C      1.793095   -3.768872   -2.351399
  C      1.525010   -4.499774   -1.434811
  H      1.299228    1.048132    0.707231
  H      0.536045    2.182345   -0.414420
  H     -0.254070    1.795897    1.126480
  H     -0.627230   -0.557392    0.382877
  H     -1.385011    0.565886   -0.726089
  H      1.395178   -1.079175   -4.455376
  H      3.803757   -1.643935   -4.163293
  H      3.586118   -1.686035   -2.345222
  H      2.059472   -3.403479   -4.430643
  H      1.286926   -5.138970   -0.621510

----------------------------
CARTESIAN COORDINATES (A.U.)
----------------------------
  NO LB      ZA    FRAG    MASS        X           Y           Z
   0 C     6.0000    0    12.011          0.640955329481449          2.613156086110294          0.576387132733585
   1 C     6.0000    0    12.011         -0.773136239586606          0.407899242851801         -0.689926898917048
   2 C     6.0000    0    12.011          0.619790467646261         -0.723419980293206         -2.782604941226452
   3 C     6.0000    0    12.011          1.811409496035167         -1.638451228437005         -4.494559770139669
   4 C     6.0000    0    12.011          3.186470240880175         -2.717483658299876         -6.560825576281720
   5 C     6.0000    0    12.011          5.937104085591812         -3.441664042846495         -6.280187956840241
   6 C     6.0000    0    12.011          3.987307061047511         -5.518311409671496         -6.536981708287983
   7 C     6.0000    0    12.011          3.388458972298486         -7.122136772873556         -4.443500756115236
   8 C     6.0000    0    12.011          2.881851431204204         -8.503339779987270         -2.711399800662956
   9 H     1.0000    0     1.008          2.455185099475116          1.980683217758303          1.336472638479657
  10 H     1.0000    0     1.008          1.012977939889102          4.124035266958794         -0.783140477896504
  11 H     1.0000    0     1.008         -0.480122522502827          3.393752814429366          2.128739524929384
  12 H     1.0000    0     1.008         -1.185292870634013         -1.053319118543753          0.723532840974020
  13 H     1.0000    0     1.008         -2.617291271574970          1.069369200570689         -1.372108997159166
  14 H     1.0000    0     1.008          2.636503699171127         -2.039345426396740         -8.419439840224879
  15 H     1.0000    0     1.008          7.188058223859827         -3.106586480134314         -7.867482835994998
  16 H     1.0000    0     1.008          6.776781360294272         -3.186144700026756         -4.431826829492723
  17 H     1.0000    0     1.008          3.891837366382660         -6.431642600469873         -8.372700959728768
  18 H     1.0000    0     1.008          2.431937158318464         -9.711245207837118         -1.174483189282890

--------------------------------
INTERNAL COORDINATES (ANGSTROEM)
--------------------------------
 C      0   0   0   0.000000     0.000     0.000
 C      1   0   0   1.539748     0.000     0.000
 C      2   1   0   1.458786   113.318     0.000
 C      3   2   1   1.205320   178.783    19.069
 C      4   3   2   1.432161   178.887   216.301
 C      5   4   3   1.512483   120.999   173.458
 C      6   5   4   1.513495    61.254   110.187
 C      7   6   5   1.431083   120.801   249.850
 C      8   7   6   1.202589   178.911   218.008
 H      1   2   3   1.093386   110.783   300.093
 H      1   2   3   1.093423   110.814    59.859
 H      1   2   3   1.094252   110.447   179.990
 H      2   1   3   1.097695   109.505   122.159
 H      2   1   3   1.097813   109.480   237.717
 H      5   4   3   1.086655   115.042    26.866
 H      6   5   4   1.084060   118.044   218.207
 H      6   5   4   1.082783   116.871     2.765
 H      7   6   5   1.086187   115.791   103.883
 H      9   8   7   1.061468   179.597   196.091

---------------------------
INTERNAL COORDINATES (A.U.)
---------------------------
 C      0   0   0   0.000000     0.000     0.000
 C      1   0   0   2.909702     0.000     0.000
 C      2   1   0   2.756706   113.318     0.000
 C      3   2   1   2.277724   178.783    19.069
 C      4   3   2   2.706392   178.887   216.301
 C      5   4   3   2.858178   120.999   173.458
 C      6   5   4   2.860090    61.254   110.187
 C      7   6   5   2.704355   120.801   249.850
 C      8   7   6   2.272564   178.911   218.008
 H      1   2   3   2.066200   110.783   300.093
 H      1   2   3   2.066270   110.814    59.859
 H      1   2   3   2.067836   110.447   179.990
 H      2   1   3   2.074343   109.505   122.159
 H      2   1   3   2.074566   109.480   237.717
 H      5   4   3   2.053480   115.042    26.866
 H      6   5   4   2.048577   118.044   218.207
 H      6   5   4   2.046164   116.871     2.765
 H      7   6   5   2.052597   115.791   103.883
 H      9   8   7   2.005884   179.597   196.091

---------------------
BASIS SET INFORMATION
---------------------
There are 2 groups of distinct atoms

 Group   1 Type C   : 11s6p2d1f contracted to 5s3p2d1f pattern {62111/411/11/1}
 Group   2 Type H   : 5s1p contracted to 3s1p pattern {311/1}

Atom   0C    basis set group =>   1
Atom   1C    basis set group =>   1
Atom   2C    basis set group =>   1
Atom   3C    basis set group =>   1
Atom   4C    basis set group =>   1
Atom   5C    basis set group =>   1
Atom   6C    basis set group =>   1
Atom   7C    basis set group =>   1
Atom   8C    basis set group =>   1
Atom   9H    basis set group =>   2
Atom  10H    basis set group =>   2
Atom  11H    basis set group =>   2
Atom  12H    basis set group =>   2
Atom  13H    basis set group =>   2
Atom  14H    basis set group =>   2
Atom  15H    basis set group =>   2
Atom  16H    basis set group =>   2
Atom  17H    basis set group =>   2
Atom  18H    basis set group =>   2
-------------------------------
AUXILIARY BASIS SET INFORMATION
-------------------------------
There are 2 groups of distinct atoms

 Group   1 Type C   : 14s10p6d2f1g contracted to 10s8p5d1f1g pattern {5111111111/31111111/21111/2/1}
 Group   2 Type H   : 4s2p2d contracted to 2s2p2d pattern {31/11/11}

Atom   0C    basis set group =>   1
Atom   1C    basis set group =>   1
Atom   2C    basis set group =>   1
Atom   3C    basis set group =>   1
Atom   4C    basis set group =>   1
Atom   5C    basis set group =>   1
Atom   6C    basis set group =>   1
Atom   7C    basis set group =>   1
Atom   8C    basis set group =>   1
Atom   9H    basis set group =>   2
Atom  10H    basis set group =>   2
Atom  11H    basis set group =>   2
Atom  12H    basis set group =>   2
Atom  13H    basis set group =>   2
Atom  14H    basis set group =>   2
Atom  15H    basis set group =>   2
Atom  16H    basis set group =>   2
Atom  17H    basis set group =>   2
Atom  18H    basis set group =>   2
------------------------------------------------------------------------------
                           ORCA GTO INTEGRAL CALCULATION
                           -- RI-GTO INTEGRALS CHOSEN --
------------------------------------------------------------------------------

                         BASIS SET STATISTICS AND STARTUP INFO

Gaussian basis set:
 # of primitive gaussian shells          ...  240
 # of primitive gaussian functions       ...  494
 # of contracted shells                  ...  139
 # of contracted basis functions         ...  339
 Highest angular momentum                ...    3
 Maximum contraction depth               ...    6
Auxiliary gaussian basis set:
 # of primitive gaussian shells          ...  377
 # of primitive gaussian functions       ... 1073
 # of contracted shells                  ...  285
 # of contracted aux-basis functions     ...  855
 Highest angular momentum                ...    4
 Maximum contraction depth               ...    5
Ratio of auxiliary to basis functions    ...  2.52
Integral package used                  ... LIBINT
 One Electron integrals                  ... done
 Ordering auxiliary basis shells         ... done
 Integral threshhold             Thresh  ...  2.500e-11
 Primitive cut-off               TCut    ...  2.500e-12
 Pre-screening matrix                    ... done
 Shell pair data                         ... 
 Ordering of the shell pairs             ... done (   0.002 sec) 8290 of 9730 pairs
 Determination of significant pairs      ... done (   0.000 sec)
 Creation of shell pair data             ... done (   0.002 sec)
 Storage of shell pair data              ... done (   0.001 sec)
 Shell pair data done in (   0.005 sec)
 Computing two index integrals           ... done
 Cholesky decomposition of the V-matrix  ... done


Timings:
 Total evaluation time                   ...   0.388 sec (  0.006 min)
 One electron matrix time                ...   0.085 sec (  0.001 min) = 21.9%
 Schwartz matrix evaluation time         ...   0.215 sec (  0.004 min) = 55.5%
 Two index repulsion integral time       ...   0.021 sec (  0.000 min) =  5.5%
 Cholesky decomposition of V             ...   0.034 sec (  0.001 min) =  8.8%
 Three index repulsion integral time     ...   0.000 sec (  0.000 min) =  0.0%

-------------------------------------------------------------------------------
                                 ORCA SCF
-------------------------------------------------------------------------------

------------
SCF SETTINGS
------------
Hamiltonian:
 Ab initio Hamiltonian  Method          .... Hartree-Fock(GTOs)
 RI-approximation to the Coulomb term is turned on
   Number of auxiliary basis functions  .... 855
   RI-JK (J+K treated both via RI)      .... on


General Settings:
 Integral files         IntName         .... dsgdb9nsd_097777
 Hartree-Fock type      HFTyp           .... RHF
 Total Charge           Charge          ....    0
 Multiplicity           Mult            ....    1
 Number of Electrons    NEL             ....   64
 Basis Dimension        Dim             ....  339
 Nuclear Repulsion      ENuc            ....    368.2546564946 Eh

Convergence Acceleration:
 DIIS                   CNVDIIS         .... on
   Start iteration      DIISMaxIt       ....    12
   Startup error        DIISStart       ....  0.200000
   # of expansion vecs  DIISMaxEq       ....     5
   Bias factor          DIISBfac        ....   1.050
   Max. coefficient     DIISMaxC        ....  10.000
 Newton-Raphson         CNVNR           .... off
 SOSCF                  CNVSOSCF        .... on
   Start iteration      SOSCFMaxIt      ....   150
   Startup grad/error   SOSCFStart      ....  0.003300
 Level Shifting         CNVShift        .... on
   Level shift para.    LevelShift      ....    0.2500
   Turn off err/grad.   ShiftErr        ....    0.0010
 Zerner damping         CNVZerner       .... off
 Static damping         CNVDamp         .... on
   Fraction old density DampFac         ....    0.7000
   Max. Damping (<1)    DampMax         ....    0.9800
   Min. Damping (>=0)   DampMin         ....    0.0000
   Turn off err/grad.   DampErr         ....    0.1000
 Fernandez-Rico         CNVRico         .... off

SCF Procedure:
 Maximum # iterations   MaxIter         ....   125
 SCF integral mode      SCFMode         .... Direct
   Integral package                     .... LIBINT
 Reset frequeny         DirectResetFreq ....    20
 Integral Threshold     Thresh          ....  2.500e-11 Eh
 Primitive CutOff       TCut            ....  2.500e-12 Eh

Convergence Tolerance:
 Convergence Check Mode ConvCheckMode   .... Total+1el-Energy
 Energy Change          TolE            ....  1.000e-08 Eh
 1-El. energy change                    ....  1.000e-05 Eh
 Orbital Gradient       TolG            ....  1.000e-05
 Orbital Rotation angle TolX            ....  1.000e-05
 DIIS Error             TolErr          ....  5.000e-07


Diagonalization of the overlap matrix:
Smallest eigenvalue                        ... 9.401e-06
Time for diagonalization                   ...    0.033 sec
Threshold for overlap eigenvalues          ... 1.000e-08
Number of eigenvalues below threshold      ... 0
Time for construction of square roots      ...    0.018 sec
Total time needed                          ...    0.051 sec

-------------------
DFT GRID GENERATION
-------------------

General Integration Accuracy     IntAcc      ...  4.340
Radial Grid Type                 RadialGrid  ... Gauss-Chebyshev
Angular Grid (max. acc.)         AngularGrid ... Lebedev-110
Angular grid pruning method      GridPruning ... 3 (G Style)
Weight generation scheme         WeightScheme... Becke
Basis function cutoff            BFCut       ...    1.0000e-11
Integration weight cutoff        WCut        ...    1.0000e-14
Grids for H and He will be reduced by one unit

# of grid points (after initial pruning)     ...  22844 (   0.0 sec)
# of grid points (after weights+screening)   ...  21195 (   0.1 sec)
nearest neighbour list constructed           ...    0.0 sec
Grid point re-assignment to atoms done       ...    0.0 sec
Grid point division into batches done        ...    0.0 sec
Reduced shell lists constructed in    1.2 sec

Total number of grid points                  ...    21195
Total number of batches                      ...      340
Average number of points per batch           ...       62
Average number of grid points per atom       ...     1116
Average number of shells per batch           ...    84.08 (60.49%)
Average number of basis functions per batch  ...   207.89 (61.32%)
Average number of large shells per batch     ...    63.53 (75.56%)
Average number of large basis fcns per batch ...   156.62 (75.34%)
Average number of aux-shells per batch       ...    84.08 (29.50%)
Average number of aux functions per batch    ...   207.89 (  inf%)
Maximum spatial batch extension              ...  20.42, 22.82, 21.15 au
Average spatial batch extension              ...   4.14,  4.02,  3.85 au

Time for grid setup =    1.352 sec

------------------------------
INITIAL GUESS: MODEL POTENTIAL
------------------------------
Loading Hartree-Fock densities                     ... done
Calculating cut-offs                               ... done
Setting up the integral package                    ... done
Initializing the effective Hamiltonian             ... done
Starting the Coulomb interaction                   ... done (   0.6 sec)
Reading the grid                                   ... done
Mapping shells                                     ... done
Starting the XC term evaluation                    ... done (   0.6 sec)
Transforming the Hamiltonian                       ... done (   0.0 sec)
Diagonalizing the Hamiltonian                      ... done (   0.0 sec)
Back transforming the eigenvectors                 ... done (   0.0 sec)
Now organizing SCF variables                       ... done
                      ------------------
                      INITIAL GUESS DONE (   2.8 sec)
                      ------------------
--------------
SCF ITERATIONS
--------------
ITER       Energy         Delta-E        Max-DP      RMS-DP      [F,P]     Damp
  0   -346.1765450530   0.000000000000 0.16964517  0.00159149  0.2261939 0.7000
  1   -346.0715158841   0.105029168893 0.12831672  0.00144692  0.1968338 0.7000
                               ***Turning on DIIS***
  2   -346.1202440254  -0.048728141263 0.07372099  0.00107209  0.1396071 0.7000
  3   -347.4013885160  -1.281144490596 0.05724679  0.00074984  0.1000088 0.7000
  4   -346.6622640773   0.739124438700 0.18886339  0.00195706  0.0673520 0.0000
  5   -346.4960950803   0.166168996980 0.02436018  0.00035937  0.0175277 0.0000
  6   -346.4845916006   0.011503479697 0.01174900  0.00017667  0.0092156 0.0000
  7   -346.5196346229  -0.035043022288 0.00539459  0.00010042  0.0052578 0.0000
                      *** Initiating the SOSCF procedure ***
                           *** Shutting down DIIS ***
                      *** Re-Reading the Fockian *** 
                      *** Removing any level shift *** 
ITER      Energy       Delta-E        Grad      Rot      Max-DP    RMS-DP
  8   -346.54086825  -0.0212336260  0.000860  0.000860  0.002320  0.000053
  9   -346.60431349  -0.0634452435  0.000120  0.000163  0.001775  0.000023
 10   -346.60431470  -0.0000012029  0.000075  0.000087  0.000429  0.000007
 11   -346.60431499  -0.0000002950  0.000020  0.000028  0.000105  0.000002
 12   -346.60431502  -0.0000000290  0.000009  0.000011  0.000055  0.000001
 13   -346.60431503  -0.0000000085  0.000005  0.000013  0.000030  0.000001
                  ***Gradient check signals convergence***
              ***Rediagonalizing the Fockian in SOSCF/NRSCF***

               *****************************************************
               *                     SUCCESS                       *
               *           SCF CONVERGED AFTER  14 CYCLES          *
               *****************************************************


----------------
TOTAL SCF ENERGY
----------------

Total Energy       :         -346.60431503 Eh           -9431.58290 eV

Components:
Nuclear Repulsion  :          368.25465649 Eh           10020.71865 eV
Electronic Energy  :         -714.85897152 Eh          -19452.30155 eV

One Electron Energy:        -1196.69344224 Eh          -32563.68407 eV
Two Electron Energy:          481.83447071 Eh           13111.38252 eV

Virial components:
Potential Energy   :         -692.73021092 Eh          -18850.14736 eV
Kinetic Energy     :          346.12589589 Eh            9418.56446 eV
Virial Ratio       :            2.00138221


---------------
SCF CONVERGENCE
---------------

  Last Energy change         ...   -2.2985e-09  Tolerance :   1.0000e-08
  Last MAX-Density change    ...    1.2021e-05  Tolerance :   1.0000e-07
  Last RMS-Density change    ...    2.2215e-07  Tolerance :   5.0000e-09
  Last Orbital Gradient      ...    2.0547e-06  Tolerance :   1.0000e-05
  Last Orbital Rotation      ...    7.4339e-06  Tolerance :   1.0000e-05

             **** THE GBW FILE WAS UPDATED (dsgdb9nsd_097777.gbw) ****
             **** DENSITY FILE WAS UPDATED (dsgdb9nsd_097777.scfp.tmp) ****
             **** ENERGY FILE WAS UPDATED (dsgdb9nsd_097777.en.tmp) ****
----------------
ORBITAL ENERGIES
----------------

  NO   OCC          E(Eh)            E(eV) 
   0   2.0000     -11.266733      -306.5834 
   1   2.0000     -11.266143      -306.5673 
   2   2.0000     -11.246764      -306.0400 
   3   2.0000     -11.246537      -306.0338 
   4   2.0000     -11.231663      -305.6291 
   5   2.0000     -11.220944      -305.3374 
   6   2.0000     -11.218796      -305.2790 
   7   2.0000     -11.217876      -305.2539 
   8   2.0000     -11.214776      -305.1696 
   9   2.0000      -1.174137       -31.9499 
  10   2.0000      -1.071474       -29.1563 
  11   2.0000      -1.024814       -27.8866 
  12   2.0000      -0.992359       -27.0035 
  13   2.0000      -0.890721       -24.2377 
  14   2.0000      -0.866410       -23.5762 
  15   2.0000      -0.842045       -22.9132 
  16   2.0000      -0.736943       -20.0532 
  17   2.0000      -0.694444       -18.8968 
  18   2.0000      -0.670720       -18.2512 
  19   2.0000      -0.642908       -17.4944 
  20   2.0000      -0.619512       -16.8578 
  21   2.0000      -0.585145       -15.9226 
  22   2.0000      -0.547854       -14.9079 
  23   2.0000      -0.545415       -14.8415 
  24   2.0000      -0.519032       -14.1236 
  25   2.0000      -0.509167       -13.8552 
  26   2.0000      -0.496496       -13.5104 
  27   2.0000      -0.487467       -13.2646 
  28   2.0000      -0.390882       -10.6364 
  29   2.0000      -0.378903       -10.3105 
  30   2.0000      -0.353859        -9.6290 
  31   2.0000      -0.341253        -9.2860 
  32   0.0000       0.135731         3.6934 
  33   0.0000       0.138238         3.7617 
  34   0.0000       0.166904         4.5417 
  35   0.0000       0.169411         4.6099 
  36   0.0000       0.173134         4.7112 
  37   0.0000       0.179776         4.8919 
  38   0.0000       0.188849         5.1389 
  39   0.0000       0.198402         5.3988 
  40   0.0000       0.199290         5.4229 
  41   0.0000       0.207127         5.6362 
  42   0.0000       0.217017         5.9053 
  43   0.0000       0.223962         6.0943 
  44   0.0000       0.236205         6.4275 
  45   0.0000       0.247793         6.7428 
  46   0.0000       0.251290         6.8379 
  47   0.0000       0.262896         7.1538 
  48   0.0000       0.270064         7.3488 
  49   0.0000       0.289647         7.8817 
  50   0.0000       0.302372         8.2280 
  51   0.0000       0.310374         8.4457 
  52   0.0000       0.315209         8.5773 
  53   0.0000       0.329558         8.9677 
  54   0.0000       0.339660         9.2426 
  55   0.0000       0.351668         9.5694 
  56   0.0000       0.361742         9.8435 
  57   0.0000       0.371278        10.1030 
  58   0.0000       0.386767        10.5245 
  59   0.0000       0.391933        10.6650 
  60   0.0000       0.401439        10.9237 
  61   0.0000       0.408926        11.1274 
  62   0.0000       0.448945        12.2164 
  63   0.0000       0.461331        12.5535 
  64   0.0000       0.474887        12.9223 
  65   0.0000       0.491662        13.3788 
  66   0.0000       0.499915        13.6034 
  67   0.0000       0.511331        13.9140 
  68   0.0000       0.519527        14.1371 
  69   0.0000       0.523834        14.2542 
  70   0.0000       0.539445        14.6790 
  71   0.0000       0.540543        14.7089 
  72   0.0000       0.555614        15.1190 
  73   0.0000       0.558381        15.1943 
  74   0.0000       0.567022        15.4294 
  75   0.0000       0.584006        15.8916 
  76   0.0000       0.598702        16.2915 
  77   0.0000       0.606472        16.5029 
  78   0.0000       0.610400        16.6098 
  79   0.0000       0.617012        16.7897 
  80   0.0000       0.634975        17.2786 
  81   0.0000       0.641883        17.4665 
  82   0.0000       0.651601        17.7310 
  83   0.0000       0.655561        17.8387 
  84   0.0000       0.660992        17.9865 
  85   0.0000       0.666830        18.1454 
  86   0.0000       0.680350        18.5133 
  87   0.0000       0.683909        18.6101 
  88   0.0000       0.695237        18.9183 
  89   0.0000       0.711770        19.3683 
  90   0.0000       0.719460        19.5775 
  91   0.0000       0.733301        19.9541 
  92   0.0000       0.739874        20.1330 
  93   0.0000       0.757527        20.6133 
  94   0.0000       0.772801        21.0290 
  95   0.0000       0.777603        21.1597 
  96   0.0000       0.803252        21.8576 
  97   0.0000       0.815583        22.1932 
  98   0.0000       0.856657        23.3108 
  99   0.0000       0.874379        23.7931 
 100   0.0000       0.883928        24.0529 
 101   0.0000       0.906689        24.6723 
 102   0.0000       0.916532        24.9401 
 103   0.0000       0.953879        25.9564 
 104   0.0000       0.994868        27.0717 
 105   0.0000       1.026501        27.9325 
 106   0.0000       1.051589        28.6152 
 107   0.0000       1.062969        28.9249 
 108   0.0000       1.066388        29.0179 
 109   0.0000       1.080098        29.3910 
 110   0.0000       1.100082        29.9347 
 111   0.0000       1.110625        30.2216 
 112   0.0000       1.136255        30.9191 
 113   0.0000       1.140576        31.0366 
 114   0.0000       1.162999        31.6468 
 115   0.0000       1.177586        32.0438 
 116   0.0000       1.189761        32.3750 
 117   0.0000       1.204779        32.7837 
 118   0.0000       1.219233        33.1770 
 119   0.0000       1.225321        33.3427 
 120   0.0000       1.237522        33.6747 
 121   0.0000       1.255116        34.1535 
 122   0.0000       1.271591        34.6018 
 123   0.0000       1.306687        35.5568 
 124   0.0000       1.321190        35.9514 
 125   0.0000       1.327405        36.1205 
 126   0.0000       1.338637        36.4262 
 127   0.0000       1.356138        36.9024 
 128   0.0000       1.371351        37.3163 
 129   0.0000       1.389830        37.8192 
 130   0.0000       1.409033        38.3417 
 131   0.0000       1.435598        39.0646 
 132   0.0000       1.460864        39.7521 
 133   0.0000       1.480708        40.2921 
 134   0.0000       1.500005        40.8172 
 135   0.0000       1.510895        41.1135 
 136   0.0000       1.526040        41.5257 
 137   0.0000       1.543674        42.0055 
 138   0.0000       1.582009        43.0487 
 139   0.0000       1.636638        44.5352 
 140   0.0000       1.682004        45.7696 
 141   0.0000       1.708484        46.4902 
 142   0.0000       1.717521        46.7361 
 143   0.0000       1.738024        47.2940 
 144   0.0000       1.744347        47.4661 
 145   0.0000       1.759329        47.8738 
 146   0.0000       1.783517        48.5320 
 147   0.0000       1.786259        48.6066 
 148   0.0000       1.805448        49.1287 
 149   0.0000       1.813252        49.3411 
 150   0.0000       1.837469        50.0001 
 151   0.0000       1.843700        50.1696 
 152   0.0000       1.849689        50.3326 
 153   0.0000       1.865501        50.7629 
 154   0.0000       1.873071        50.9688 
 155   0.0000       1.889839        51.4251 
 156   0.0000       1.906028        51.8657 
 157   0.0000       1.923756        52.3481 
 158   0.0000       1.929028        52.4915 
 159   0.0000       1.951455        53.1018 
 160   0.0000       1.965847        53.4934 
 161   0.0000       1.976317        53.7783 
 162   0.0000       1.995573        54.3023 
 163   0.0000       2.030328        55.2480 
 164   0.0000       2.063660        56.1550 
 165   0.0000       2.080100        56.6024 
 166   0.0000       2.084227        56.7147 
 167   0.0000       2.096867        57.0587 
 168   0.0000       2.113023        57.4983 
 169   0.0000       2.127082        57.8808 
 170   0.0000       2.140720        58.2520 
 171   0.0000       2.169451        59.0338 
 172   0.0000       2.187606        59.5278 
 173   0.0000       2.207207        60.0612 
 174   0.0000       2.219380        60.3924 
 175   0.0000       2.232092        60.7383 
 176   0.0000       2.242737        61.0280 
 177   0.0000       2.251029        61.2536 
 178   0.0000       2.290694        62.3330 
 179   0.0000       2.339400        63.6583 
 180   0.0000       2.400905        65.3320 
 181   0.0000       2.434319        66.2412 
 182   0.0000       2.486727        67.6673 
 183   0.0000       2.507766        68.2398 
 184   0.0000       2.539763        69.1105 
 185   0.0000       2.552971        69.4699 
 186   0.0000       2.574628        70.0592 
 187   0.0000       2.610779        71.0429 
 188   0.0000       2.626670        71.4753 
 189   0.0000       2.630602        71.5823 
 190   0.0000       2.655237        72.2527 
 191   0.0000       2.661258        72.4165 
 192   0.0000       2.682526        72.9953 
 193   0.0000       2.690867        73.2222 
 194   0.0000       2.700587        73.4867 
 195   0.0000       2.720551        74.0300 
 196   0.0000       2.741561        74.6017 
 197   0.0000       2.749882        74.8281 
 198   0.0000       2.779226        75.6266 
 199   0.0000       2.790309        75.9282 
 200   0.0000       2.817407        76.6656 
 201   0.0000       2.828093        76.9563 
 202   0.0000       2.836346        77.1809 
 203   0.0000       2.846533        77.4581 
 204   0.0000       2.849876        77.5491 
 205   0.0000       2.856446        77.7279 
 206   0.0000       2.868621        78.0591 
 207   0.0000       2.878558        78.3296 
 208   0.0000       2.884306        78.4860 
 209   0.0000       2.894503        78.7634 
 210   0.0000       2.907267        79.1108 
 211   0.0000       2.935082        79.8676 
 212   0.0000       2.937871        79.9435 
 213   0.0000       2.948015        80.2196 
 214   0.0000       2.970913        80.8427 
 215   0.0000       2.978762        81.0562 
 216   0.0000       2.999913        81.6318 
 217   0.0000       3.027292        82.3768 
 218   0.0000       3.050165        82.9992 
 219   0.0000       3.064722        83.3953 
 220   0.0000       3.086449        83.9866 
 221   0.0000       3.093555        84.1799 
 222   0.0000       3.107583        84.5616 
 223   0.0000       3.129204        85.1500 
 224   0.0000       3.146054        85.6085 
 225   0.0000       3.166891        86.1755 
 226   0.0000       3.182234        86.5930 
 227   0.0000       3.189983        86.8039 
 228   0.0000       3.205540        87.2272 
 229   0.0000       3.224699        87.7485 
 230   0.0000       3.231854        87.9432 
 231   0.0000       3.243832        88.2691 
 232   0.0000       3.250115        88.4401 
 233   0.0000       3.259048        88.6832 
 234   0.0000       3.273497        89.0764 
 235   0.0000       3.285971        89.4158 
 236   0.0000       3.294328        89.6432 
 237   0.0000       3.311787        90.1183 
 238   0.0000       3.315832        90.2284 
 239   0.0000       3.328334        90.5686 
 240   0.0000       3.348537        91.1183 
 241   0.0000       3.356093        91.3239 
 242   0.0000       3.367495        91.6342 
 243   0.0000       3.379278        91.9548 
 244   0.0000       3.393528        92.3426 
 245   0.0000       3.403167        92.6049 
 246   0.0000       3.416276        92.9616 
 247   0.0000       3.418086        93.0108 
 248   0.0000       3.431935        93.3877 
 249   0.0000       3.443812        93.7109 
 250   0.0000       3.461851        94.2018 
 251   0.0000       3.465707        94.3067 
 252   0.0000       3.484582        94.8203 
 253   0.0000       3.494505        95.0903 
 254   0.0000       3.509996        95.5119 
 255   0.0000       3.546383        96.5020 
 256   0.0000       3.551679        96.6461 
 257   0.0000       3.570797        97.1663 
 258   0.0000       3.579707        97.4088 
 259   0.0000       3.595330        97.8339 
 260   0.0000       3.602301        98.0236 
 261   0.0000       3.620007        98.5054 
 262   0.0000       3.636188        98.9457 
 263   0.0000       3.660287        99.6015 
 264   0.0000       3.679195       100.1160 
 265   0.0000       3.690071       100.4119 
 266   0.0000       3.734384       101.6178 
 267   0.0000       3.750871       102.0664 
 268   0.0000       3.769236       102.5661 
 269   0.0000       3.772919       102.6664 
 270   0.0000       3.798990       103.3758 
 271   0.0000       3.808421       103.6324 
 272   0.0000       3.833269       104.3085 
 273   0.0000       3.846196       104.6603 
 274   0.0000       3.903590       106.2221 
 275   0.0000       3.924064       106.7792 
 276   0.0000       3.944077       107.3238 
 277   0.0000       3.963673       107.8570 
 278   0.0000       3.987973       108.5183 
 279   0.0000       4.032959       109.7424 
 280   0.0000       4.062078       110.5348 
 281   0.0000       4.087070       111.2148 
 282   0.0000       4.111182       111.8710 
 283   0.0000       4.115154       111.9790 
 284   0.0000       4.160026       113.2001 
 285   0.0000       4.181813       113.7929 
 286   0.0000       4.199105       114.2635 
 287   0.0000       4.214068       114.6706 
 288   0.0000       4.240025       115.3770 
 289   0.0000       4.246196       115.5449 
 290   0.0000       4.288779       116.7036 
 291   0.0000       4.334057       117.9357 
 292   0.0000       4.348662       118.3331 
 293   0.0000       4.379603       119.1751 
 294   0.0000       4.459232       121.3419 
 295   0.0000       4.466949       121.5519 
 296   0.0000       4.481247       121.9409 
 297   0.0000       4.496390       122.3530 
 298   0.0000       4.539368       123.5225 
 299   0.0000       4.575288       124.4999 
 300   0.0000       4.596872       125.0872 
 301   0.0000       4.622374       125.7812 
 302   0.0000       4.650383       126.5434 
 303   0.0000       4.669436       127.0618 
 304   0.0000       4.739851       128.9779 
 305   0.0000       4.759189       129.5041 
 306   0.0000       4.775628       129.9514 
 307   0.0000       4.876956       132.7087 
 308   0.0000       4.887552       132.9970 
 309   0.0000       4.921104       133.9101 
 310   0.0000       4.934216       134.2668 
 311   0.0000       4.954428       134.8168 
 312   0.0000       5.024198       136.7154 
 313   0.0000       5.047700       137.3549 
 314   0.0000       5.111671       139.0957 
 315   0.0000       5.161302       140.4462 
 316   0.0000       5.234166       142.4289 
 317   0.0000       5.273625       143.5026 
 318   0.0000       5.310137       144.4962 
 319   0.0000       5.342747       145.3835 
 320   0.0000       5.369425       146.1095 
 321   0.0000       5.421711       147.5323 
 322   0.0000       5.487778       149.3300 
 323   0.0000       5.544205       150.8655 
 324   0.0000       5.573410       151.6602 
 325   0.0000       5.644426       153.5926 
 326   0.0000       5.658737       153.9820 
 327   0.0000       5.948941       161.8789 
 328   0.0000       5.976790       162.6367 
 329   0.0000       6.086181       165.6134 
 330   0.0000      23.395853       636.6335 
 331   0.0000      23.510732       639.7596 
 332   0.0000      23.604879       642.3214 
 333   0.0000      23.680574       644.3812 
 334   0.0000      23.814483       648.0250 
 335   0.0000      23.871003       649.5630 
 336   0.0000      24.602155       669.4587 
 337   0.0000      24.778952       674.2696 
 338   0.0000      25.081104       682.4915 

                    ********************************
                    * MULLIKEN POPULATION ANALYSIS *
                    ********************************

-----------------------
MULLIKEN ATOMIC CHARGES
-----------------------
   0 C :   -0.288675
   1 C :   -0.262044
   2 C :    0.042572
   3 C :    0.030820
   4 C :   -0.236180
   5 C :   -0.175098
   6 C :   -0.230813
   7 C :   -0.070785
   8 C :   -0.071676
   9 H :    0.104965
  10 H :    0.104436
  11 H :    0.108143
  12 H :    0.121485
  13 H :    0.118441
  14 H :    0.124627
  15 H :    0.123857
  16 H :    0.131360
  17 H :    0.126247
  18 H :    0.198318
Sum of atomic charges:    0.0000000

--------------------------------
MULLIKEN REDUCED ORBITAL CHARGES
--------------------------------
  0 C s       :     3.198516  s :     3.198516
      pz      :     1.020323  p :     3.011018
      px      :     1.019699
      py      :     0.970995
      dz2     :     0.006412  d :     0.074588
      dxz     :     0.016863
      dyz     :     0.021763
      dx2y2   :     0.016624
      dxy     :     0.012925
      f0      :     0.000230  f :     0.004554
      f+1     :     0.000327
      f-1     :     0.000735
      f+2     :     0.000986
      f-2     :     0.001219
      f+3     :     0.000477
      f-3     :     0.000580
  1 C s       :     3.291798  s :     3.291798
      pz      :     0.918146  p :     2.854263
      px      :     0.968011
      py      :     0.968106
      dz2     :     0.016595  d :     0.110006
      dxz     :     0.019784
      dyz     :     0.031931
      dx2y2   :     0.022781
      dxy     :     0.018915
      f0      :     0.000454  f :     0.005977
      f+1     :     0.000627
      f-1     :     0.000992
      f+2     :     0.001148
      f-2     :     0.001431
      f+3     :     0.000571
      f-3     :     0.000754
  2 C s       :     3.413046  s :     3.413046
      pz      :     0.706015  p :     2.466439
      px      :     0.853398
      py      :     0.907026
      dz2     :     0.025539  d :     0.066515
      dxz     :     0.007950
      dyz     :     0.012285
      dx2y2   :     0.011785
      dxy     :     0.008957
      f0      :     0.002305  f :     0.011428
      f+1     :     0.001955
      f-1     :     0.001552
      f+2     :     0.002496
      f-2     :     0.001772
      f+3     :     0.000682
      f-3     :     0.000667
  3 C s       :     3.399812  s :     3.399812
      pz      :     0.720003  p :     2.476161
      px      :     0.839972
      py      :     0.916186
      dz2     :     0.020001  d :     0.081292
      dxz     :     0.017214
      dyz     :     0.016797
      dx2y2   :     0.017673
      dxy     :     0.009606
      f0      :     0.002505  f :     0.011915
      f+1     :     0.001883
      f-1     :     0.001528
      f+2     :     0.002732
      f-2     :     0.001788
      f+3     :     0.000831
      f-3     :     0.000649
  4 C s       :     3.289658  s :     3.289658
      pz      :     0.946238  p :     2.826429
      px      :     0.962027
      py      :     0.918165
      dz2     :     0.029095  d :     0.110668
      dxz     :     0.015867
      dyz     :     0.015062
      dx2y2   :     0.029699
      dxy     :     0.020945
      f0      :     0.001024  f :     0.009424
      f+1     :     0.001246
      f-1     :     0.001151
      f+2     :     0.001047
      f-2     :     0.001014
      f+3     :     0.001937
      f-3     :     0.002005
  5 C s       :     3.198777  s :     3.198777
      pz      :     1.063564  p :     2.887617
      px      :     0.835817
      py      :     0.988235
      dz2     :     0.014987  d :     0.080623
      dxz     :     0.017312
      dyz     :     0.006207
      dx2y2   :     0.020177
      dxy     :     0.021941
      f0      :     0.000721  f :     0.008081
      f+1     :     0.001918
      f-1     :     0.000251
      f+2     :     0.000748
      f-2     :     0.000714
      f+3     :     0.001818
      f-3     :     0.001911
  6 C s       :     3.260636  s :     3.260636
      pz      :     0.946830  p :     2.848469
      px      :     1.051752
      py      :     0.849887
      dz2     :     0.028043  d :     0.112288
      dxz     :     0.012426
      dyz     :     0.022567
      dx2y2   :     0.022667
      dxy     :     0.026586
      f0      :     0.000975  f :     0.009420
      f+1     :     0.000382
      f-1     :     0.002085
      f+2     :     0.000990
      f-2     :     0.001070
      f+3     :     0.001934
      f-3     :     0.001985
  7 C s       :     3.384429  s :     3.384429
      pz      :     0.789156  p :     2.545201
      px      :     0.925825
      py      :     0.830220
      dz2     :     0.031649  d :     0.128648
      dxz     :     0.025934
      dyz     :     0.035305
      dx2y2   :     0.016183
      dxy     :     0.019578
      f0      :     0.002802  f :     0.012507
      f+1     :     0.001261
      f-1     :     0.002272
      f+2     :     0.002237
      f-2     :     0.002468
      f+3     :     0.000672
      f-3     :     0.000795
  8 C s       :     3.002937  s :     3.002937
      pz      :     1.028663  p :     3.048079
      px      :     1.023193
      py      :     0.996223
      dz2     :     0.007950  d :     0.012255
      dxz     :     0.004897
      dyz     :    -0.006133
      dx2y2   :     0.002526
      dxy     :     0.003014
      f0      :     0.001632  f :     0.008405
      f+1     :     0.000838
      f-1     :     0.001952
      f+2     :     0.001543
      f-2     :     0.001573
      f+3     :     0.000419
      f-3     :     0.000448
  9 H s       :     0.873274  s :     0.873274
      pz      :     0.005101  p :     0.021761
      px      :     0.012274
      py      :     0.004386
 10 H s       :     0.873803  s :     0.873803
      pz      :     0.008007  p :     0.021760
      px      :     0.004067
      py      :     0.009686
 11 H s       :     0.870180  s :     0.870180
      pz      :     0.009880  p :     0.021676
      px      :     0.006455
      py      :     0.005341
 12 H s       :     0.856409  s :     0.856409
      pz      :     0.008659  p :     0.022106
      px      :     0.004204
      py      :     0.009243
 13 H s       :     0.859467  s :     0.859467
      pz      :     0.004587  p :     0.022092
      px      :     0.012886
      py      :     0.004619
 14 H s       :     0.851425  s :     0.851425
      pz      :     0.013597  p :     0.023949
      px      :     0.004879
      py      :     0.005473
 15 H s       :     0.852896  s :     0.852896
      pz      :     0.010193  p :     0.023247
      px      :     0.008349
      py      :     0.004705
 16 H s       :     0.845200  s :     0.845200
      pz      :     0.013533  p :     0.023440
      px      :     0.005503
      py      :     0.004403
 17 H s       :     0.849718  s :     0.849718
      pz      :     0.013367  p :     0.024035
      px      :     0.004569
      py      :     0.006099
 18 H s       :     0.777230  s :     0.777230
      pz      :     0.011549  p :     0.024452
      px      :     0.004453
      py      :     0.008451


                     *******************************
                     * LOEWDIN POPULATION ANALYSIS *
                     *******************************

----------------------
LOEWDIN ATOMIC CHARGES
----------------------
   0 C :   -0.269704
   1 C :   -0.252843
   2 C :   -0.070497
   3 C :   -0.068846
   4 C :   -0.162692
   5 C :   -0.140615
   6 C :   -0.163600
   7 C :   -0.090765
   8 C :   -0.098775
   9 H :    0.113374
  10 H :    0.113185
  11 H :    0.109687
  12 H :    0.143644
  13 H :    0.142780
  14 H :    0.154596
  15 H :    0.125421
  16 H :    0.136658
  17 H :    0.155469
  18 H :    0.123525

-------------------------------
LOEWDIN REDUCED ORBITAL CHARGES
-------------------------------
  0 C s       :     2.831640  s :     2.831640
      pz      :     1.047835  p :     3.139001
      px      :     1.055595
      py      :     1.035571
      dz2     :     0.027131  d :     0.274744
      dxz     :     0.057959
      dyz     :     0.078227
      dx2y2   :     0.061850
      dxy     :     0.049577
      f0      :     0.002521  f :     0.024319
      f+1     :     0.003015
      f-1     :     0.004168
      f+2     :     0.003152
      f-2     :     0.003398
      f+3     :     0.003043
      f-3     :     0.005022
  1 C s       :     2.764035  s :     2.764035
      pz      :     1.006701  p :     3.033349
      px      :     1.011125
      py      :     1.015522
      dz2     :     0.068455  d :     0.416333
      dxz     :     0.076503
      dyz     :     0.117183
      dx2y2   :     0.084023
      dxy     :     0.070168
      f0      :     0.005583  f :     0.039126
      f+1     :     0.005177
      f-1     :     0.006312
      f+2     :     0.006674
      f-2     :     0.005309
      f+3     :     0.004237
      f-3     :     0.005835
  2 C s       :     2.793686  s :     2.793686
      pz      :     1.019275  p :     2.889199
      px      :     0.953180
      py      :     0.916744
      dz2     :     0.101325  d :     0.342908
      dxz     :     0.070302
      dyz     :     0.074892
      dx2y2   :     0.050494
      dxy     :     0.045895
      f0      :     0.006996  f :     0.044705
      f+1     :     0.009556
      f-1     :     0.006683
      f+2     :     0.007599
      f-2     :     0.009347
      f+3     :     0.002064
      f-3     :     0.002460
  3 C s       :     2.778189  s :     2.778189
      pz      :     1.034592  p :     2.901081
      px      :     0.945388
      py      :     0.921101
      dz2     :     0.099856  d :     0.344262
      dxz     :     0.072541
      dyz     :     0.072211
      dx2y2   :     0.062587
      dxy     :     0.037067
      f0      :     0.007021  f :     0.045314
      f+1     :     0.009449
      f-1     :     0.006759
      f+2     :     0.008230
      f-2     :     0.009225
      f+3     :     0.002378
      f-3     :     0.002251
  4 C s       :     2.701963  s :     2.701963
      pz      :     0.992180  p :     2.909099
      px      :     0.980791
      py      :     0.936128
      dz2     :     0.108957  d :     0.497224
      dxz     :     0.093161
      dyz     :     0.086947
      dx2y2   :     0.103607
      dxy     :     0.104551
      f0      :     0.007606  f :     0.054405
      f+1     :     0.006356
      f-1     :     0.005897
      f+2     :     0.008719
      f-2     :     0.004883
      f+3     :     0.010354
      f-3     :     0.010591
  5 C s       :     2.768801  s :     2.768801
      pz      :     1.027436  p :     2.975355
      px      :     0.955915
      py      :     0.992004
      dz2     :     0.051098  d :     0.355213
      dxz     :     0.108173
      dyz     :     0.031304
      dx2y2   :     0.088427
      dxy     :     0.076211
      f0      :     0.004720  f :     0.041246
      f+1     :     0.005795
      f-1     :     0.001863
      f+2     :     0.003486
      f-2     :     0.004603
      f+3     :     0.009920
      f-3     :     0.010859
  6 C s       :     2.702387  s :     2.702387
      pz      :     0.991212  p :     2.917164
      px      :     0.999873
      py      :     0.926079
      dz2     :     0.103120  d :     0.490060
      dxz     :     0.052391
      dyz     :     0.131568
      dx2y2   :     0.105398
      dxy     :     0.097583
      f0      :     0.007530  f :     0.053989
      f+1     :     0.003557
      f-1     :     0.008784
      f+2     :     0.005594
      f-2     :     0.007780
      f+3     :     0.009594
      f-3     :     0.011150
  7 C s       :     2.792398  s :     2.792398
      pz      :     1.047243  p :     2.893159
      px      :     0.875509
      py      :     0.970406
      dz2     :     0.105224  d :     0.359285
      dxz     :     0.078708
      dyz     :     0.074750
      dx2y2   :     0.044728
      dxy     :     0.055876
      f0      :     0.007440  f :     0.045924
      f+1     :     0.004172
      f-1     :     0.012574
      f+2     :     0.008691
      f-2     :     0.008685
      f+3     :     0.002151
      f-3     :     0.002211
  8 C s       :     2.882054  s :     2.882054
      pz      :     1.051601  p :     3.037550
      px      :     0.979400
      py      :     1.006550
      dz2     :     0.038336  d :     0.143654
      dxz     :     0.025251
      dyz     :     0.046160
      dx2y2   :     0.017396
      dxy     :     0.016511
      f0      :     0.005378  f :     0.035516
      f+1     :     0.003205
      f-1     :     0.010442
      f+2     :     0.006904
      f-2     :     0.006416
      f+3     :     0.001630
      f-3     :     0.001541
  9 H s       :     0.826416  s :     0.826416
      pz      :     0.015120  p :     0.060210
      px      :     0.030834
      py      :     0.014257
 10 H s       :     0.826621  s :     0.826621
      pz      :     0.022821  p :     0.060195
      px      :     0.013002
      py      :     0.024371
 11 H s       :     0.830637  s :     0.830637
      pz      :     0.025426  p :     0.059676
      px      :     0.019091
      py      :     0.015159
 12 H s       :     0.799337  s :     0.799337
      pz      :     0.021365  p :     0.057019
      px      :     0.012320
      py      :     0.023333
 13 H s       :     0.800306  s :     0.800306
      pz      :     0.013810  p :     0.056914
      px      :     0.029018
      py      :     0.014086
 14 H s       :     0.786321  s :     0.786321
      pz      :     0.030718  p :     0.059084
      px      :     0.013670
      py      :     0.014696
 15 H s       :     0.812710  s :     0.812710
      pz      :     0.027579  p :     0.061869
      px      :     0.019901
      py      :     0.014390
 16 H s       :     0.800713  s :     0.800713
      pz      :     0.034582  p :     0.062628
      px      :     0.014139
      py      :     0.013908
 17 H s       :     0.785143  s :     0.785143
      pz      :     0.030288  p :     0.059389
      px      :     0.014502
      py      :     0.014599
 18 H s       :     0.806358  s :     0.806358
      pz      :     0.031227  p :     0.070116
      px      :     0.014917
      py      :     0.023972


                      *****************************
                      * MAYER POPULATION ANALYSIS *
                      *****************************

  NA   - Mulliken gross atomic population
  ZA   - Total nuclear charge
  QA   - Mulliken gross atomic charge
  VA   - Mayer's total valence
  BVA  - Mayer's bonded valence
  FA   - Mayer's free valence

  ATOM       NA         ZA         QA         VA         BVA        FA
  0 C      6.2887     6.0000    -0.2887     3.8860     3.8860    -0.0000
  1 C      6.2620     6.0000    -0.2620     3.8655     3.8655    -0.0000
  2 C      5.9574     6.0000     0.0426     3.5138     3.5138     0.0000
  3 C      5.9692     6.0000     0.0308     3.8495     3.8495     0.0000
  4 C      6.2362     6.0000    -0.2362     3.7423     3.7423     0.0000
  5 C      6.1751     6.0000    -0.1751     3.8392     3.8392     0.0000
  6 C      6.2308     6.0000    -0.2308     3.7942     3.7942     0.0000
  7 C      6.0708     6.0000    -0.0708     4.1422     4.1422     0.0000
  8 C      6.0717     6.0000    -0.0717     3.5666     3.5666    -0.0000
  9 H      0.8950     1.0000     0.1050     0.9775     0.9775    -0.0000
 10 H      0.8956     1.0000     0.1044     0.9779     0.9779    -0.0000
 11 H      0.8919     1.0000     0.1081     0.9709     0.9709    -0.0000
 12 H      0.8785     1.0000     0.1215     0.9581     0.9581    -0.0000
 13 H      0.8816     1.0000     0.1184     0.9594     0.9594    -0.0000
 14 H      0.8754     1.0000     0.1246     0.9537     0.9537     0.0000
 15 H      0.8761     1.0000     0.1239     0.9706     0.9706     0.0000
 16 H      0.8686     1.0000     0.1314     0.9864     0.9864    -0.0000
 17 H      0.8738     1.0000     0.1262     0.9539     0.9539     0.0000
 18 H      0.8017     1.0000     0.1983     0.9690     0.9690    -0.0000

  Mayer bond orders larger than 0.1
B(  0-C ,  1-C ) :   0.9923 B(  0-C ,  9-H ) :   0.9832 B(  0-C , 10-H ) :   0.9828 
B(  0-C , 11-H ) :   0.9907 B(  1-C ,  2-C ) :   1.0149 B(  1-C ,  3-C ) :  -0.1448 
B(  1-C , 12-H ) :   0.9982 B(  1-C , 13-H ) :   1.0028 B(  2-C ,  3-C ) :   2.7946 
B(  2-C ,  4-C ) :  -0.2377 B(  3-C ,  4-C ) :   1.1893 B(  4-C ,  5-C ) :   0.9391 
B(  4-C ,  6-C ) :   0.9114 B(  4-C , 14-H ) :   0.9841 B(  5-C ,  6-C ) :   0.9256 
B(  5-C , 15-H ) :   0.9801 B(  5-C , 16-H ) :   0.9743 B(  6-C ,  7-C ) :   1.2667 
B(  6-C ,  8-C ) :  -0.2178 B(  6-C , 17-H ) :   0.9862 B(  7-C ,  8-C ) :   2.8059 
B(  8-C , 18-H ) :   0.9125 

-------
TIMINGS
-------

Total SCF time: 0 days 0 hours 2 min 24 sec 

Total time                  ....     144.343 sec
Sum of individual times     ....     148.322 sec  (102.8%)

Fock matrix formation       ....     142.823 sec  ( 98.9%)
Diagonalization             ....       0.597 sec  (  0.4%)
Density matrix formation    ....       0.047 sec  (  0.0%)
Population analysis         ....       0.166 sec  (  0.1%)
Initial guess               ....       2.771 sec  (  1.9%)
Orbital Transformation      ....       0.000 sec  (  0.0%)
Orbital Orthonormalization  ....       0.000 sec  (  0.0%)
DIIS solution               ....       0.199 sec  (  0.1%)
SOSCF solution              ....       0.366 sec  (  0.3%)

   <<< Auxbasis replaced with dsgdb9nsd_097777.AUXC.tmp (Dim=834) >>> 


------------------------------------------------------------------------------
                              ORCA MP2 CALCULATION
------------------------------------------------------------------------------

Freezing NCore=18 chemical core electrons

   <<< Use J-auxbasis for calculation of Separable RI-J derivative contributions dsgdb9nsd_097777.AUXJ.tmp (Dim=855) >>> 


---------------------
RI-MP2 ENERGY+DENSITY
---------------------
Dimension of the basis                    ...  339
Memory devoted to MP2                     ... 2000 MB   
Data format for buffers                   ... DOUBLE
Compression type for matrix containers    ... UNCOMPRESSED
Overall scaling of the MP2 energy         ...   1.000e+00 Eh
Calculating two index integrals           ... done (    0.018 sec)
Cholesky decomposition of V**-1           ... done (    0.122 sec)

-----------------
RI-TRANSFORMATION (AUX index driven)
-----------------

Dimension of the orbital-basis         ... 339
Dimension of the aux-basis             ... 834
Transformation of internal MOs         ...    0-  31
Transformation of internal/external MOs...    0-  31 to   32- 338
Number Format for Storage              ... Double (8 Byte)
Integral mode                          ... Direct

First Phase: integral generation and transformation of MO indices
  Aux angular momentum 0               ... done (    0.817 sec)
  Aux angular momentum 1               ... done (    1.137 sec)
  Aux angular momentum 2               ... done (    1.196 sec)
  Aux angular momentum 3               ... done (    0.903 sec)
  Aux angular momentum 4               ... done (    0.409 sec)
Closing buffer VIJ ( 0.00 GB; CompressionRatio= 1.93)
Closing buffer VIA ( 0.06 GB; CompressionRatio= 1.00)
  Phase 1 completed in     4.563 sec
Second Phase: sorting and transformation of aux index

IJ-Transformation
Memory available                       ... 1986 MB 
Max. # MO pairs treated in a batch     ... 32    
# of internal orbitals                 ... 32
# batches for internal orbitals        ... 1
Closing buffer IJV ( 0.00 GB; CompressionRatio= 1.00)
(ij|v) transformation done in     0.186 sec

IA-Transformation
Memory available                       ... 1986 MB 
Max. # MO pairs treated in a batch     ... 32    
# of internal orbitals                 ... 32
# batches for internal orbitals        ... 1
Closing buffer IAV ( 0.06 GB; CompressionRatio= 1.00)
(ia|v) transformation done in     1.436 sec

  Phase 2 completed in     1.640 sec
RI-Integral transformation completed in     6.204 sec
Opening buffers                              ... done
Frozen core precalculation                   ... done

Starting loop over batches of integrals:

Operator 0  - window                       ... (  9- 31)x( 32-338)
Operator 0  - Memory available             ...  2000 MB
Operator 0  - Memory needed per MO         ...   3.9 MB
Operator 0  - Number of orbitals per batch ... 23
Operator 0  - Number of batches            ... 1

OPERATOR  0   PASS   0:  MOs     9 ...   31
  Reading integrals       ... ok
  Internal MO  11
  Internal MO  14
  Internal MO  17
  Internal MO  20
  Internal MO  23
  Internal MO  26
  Internal MO  29
Time spent in pair loops =    33.229 sec
Deleting buffer (Ka|jb)[aa] ...done

-----------------------------------------------
 RI-MP2 CORRELATION ENERGY:     -1.411196852 Eh
-----------------------------------------------


---------------------
MP2 DENSITY FORMATION
---------------------

Completing the external part of the density      ... done
Storing the unrelaxed density                    ... done

Calculating G(D)                                 ... done
Completing the Lagrangian                        ... done
Solving the Z-vector equations                   ... 

------------------------------------------------------------------------------
                           ORCA CP-SCF CALCULATION
------------------------------------------------------------------------------

Input orbitals are from        ... dsgdb9nsd_097777.gbw
Input Perturbation             ... dsgdb9nsd_097777.pin.tmp
Wavefunction output            ... dsgdb9nsd_097777.pout.tmp
Perturbation mode              ... Real perturbation
Solver                         ... POPLE
Max. number of iterations      ... 128
Convergence tolerance          ... 1.000e-08
Integral handling              ... Direct
Number of perturbations        ... 1
Number of operators            ... 1
Orbital ranges used for CP-SCF:
 Operator 0:  Orbitals   0... 31  to  32...338
Variables per vector in CP-SCF ... 9824
Number of vectors sought       ... 1
     CP-SCF ITERATION   0: 
     CP-SCF ITERATION   1:      0.001123446
     CP-SCF ITERATION   2:      0.000212734
     CP-SCF ITERATION   3:      0.000024119
     CP-SCF ITERATION   4:      0.000007099
     CP-SCF ITERATION   5:      0.000002112
     CP-SCF ITERATION   6:      0.000000316
     CP-SCF ITERATION   7:      0.000000031
     CP-SCF ITERATION   8:      0.000000002
done
Finalizing the relaxed density                   ... done
Transforming P to the AO basis                   ... done
Storing the relaxed density                      ... done

                *********************************************
                * UNRELAXED MP2 DENSITY POPULATION ANALYSIS *
                *********************************************

------------------------------------------------------------------------------
                           ORCA POPULATION ANALYSIS
------------------------------------------------------------------------------
Input electron density              ... dsgdb9nsd_097777.pmp2ur
BaseName (.gbw .S,...)              ... dsgdb9nsd_097777

                    ********************************
                    * MULLIKEN POPULATION ANALYSIS *
                    ********************************

-----------------------
MULLIKEN ATOMIC CHARGES
-----------------------
   0 C :   -0.298154
   1 C :   -0.269047
   2 C :    0.043706
   3 C :    0.027676
   4 C :   -0.237020
   5 C :   -0.184927
   6 C :   -0.230942
   7 C :   -0.075988
   8 C :   -0.072958
   9 H :    0.108085
  10 H :    0.107571
  11 H :    0.111391
  12 H :    0.124879
  13 H :    0.121870
  14 H :    0.128987
  15 H :    0.127559
  16 H :    0.135064
  17 H :    0.130601
  18 H :    0.201648
Sum of atomic charges:    0.0000000

--------------------------------
MULLIKEN REDUCED ORBITAL CHARGES
--------------------------------
  0 C s       :     3.195466  s :     3.195466
      pz      :     1.015033  p :     2.994791
      px      :     1.014156
      py      :     0.965602
      dz2     :     0.012250  d :     0.099681
      dxz     :     0.021799
      dyz     :     0.026084
      dx2y2   :     0.021806
      dxy     :     0.017741
      f0      :     0.000741  f :     0.008216
      f+1     :     0.000863
      f-1     :     0.001278
      f+2     :     0.001509
      f-2     :     0.001710
      f+3     :     0.000990
      f-3     :     0.001125
  1 C s       :     3.288251  s :     3.288251
      pz      :     0.912633  p :     2.836026
      px      :     0.961726
      py      :     0.961666
      dz2     :     0.022379  d :     0.134787
      dxz     :     0.024305
      dyz     :     0.036081
      dx2y2   :     0.028294
      dxy     :     0.023727
      f0      :     0.001050  f :     0.009982
      f+1     :     0.001175
      f-1     :     0.001586
      f+2     :     0.001759
      f-2     :     0.001949
      f+3     :     0.001131
      f-3     :     0.001333
  2 C s       :     3.399461  s :     3.399461
      pz      :     0.703355  p :     2.450269
      px      :     0.847550
      py      :     0.899364
      dz2     :     0.029734  d :     0.091834
      dxz     :     0.014024
      dyz     :     0.017767
      dx2y2   :     0.016337
      dxy     :     0.013972
      f0      :     0.002851  f :     0.014730
      f+1     :     0.002446
      f-1     :     0.002051
      f+2     :     0.002970
      f-2     :     0.002197
      f+3     :     0.001117
      f-3     :     0.001098
  3 C s       :     3.390231  s :     3.390231
      pz      :     0.715142  p :     2.460581
      px      :     0.836208
      py      :     0.909231
      dz2     :     0.024800  d :     0.106250
      dxz     :     0.022957
      dyz     :     0.021948
      dx2y2   :     0.022018
      dxy     :     0.014528
      f0      :     0.003063  f :     0.015262
      f+1     :     0.002387
      f-1     :     0.002036
      f+2     :     0.003200
      f-2     :     0.002218
      f+3     :     0.001270
      f-3     :     0.001088
  4 C s       :     3.283273  s :     3.283273
      pz      :     0.940424  p :     2.805824
      px      :     0.953925
      py      :     0.911475
      dz2     :     0.033806  d :     0.134356
      dxz     :     0.020935
      dyz     :     0.020403
      dx2y2   :     0.032935
      dxy     :     0.026277
      f0      :     0.001749  f :     0.013567
      f+1     :     0.001816
      f-1     :     0.001707
      f+2     :     0.001738
      f-2     :     0.001573
      f+3     :     0.002450
      f-3     :     0.002533
  5 C s       :     3.197422  s :     3.197422
      pz      :     1.057782  p :     2.872207
      px      :     0.832328
      py      :     0.982097
      dz2     :     0.019188  d :     0.103509
      dxz     :     0.022593
      dyz     :     0.012054
      dx2y2   :     0.024474
      dxy     :     0.025199
      f0      :     0.001337  f :     0.011789
      f+1     :     0.002419
      f-1     :     0.000768
      f+2     :     0.001294
      f-2     :     0.001294
      f+3     :     0.002288
      f-3     :     0.002387
  6 C s       :     3.254854  s :     3.254854
      pz      :     0.940886  p :     2.826259
      px      :     1.041471
      py      :     0.843902
      dz2     :     0.032867  d :     0.136248
      dxz     :     0.018388
      dyz     :     0.026900
      dx2y2   :     0.027691
      dxy     :     0.030403
      f0      :     0.001703  f :     0.013580
      f+1     :     0.000964
      f-1     :     0.002627
      f+2     :     0.001598
      f-2     :     0.001728
      f+3     :     0.002453
      f-3     :     0.002508
  7 C s       :     3.379583  s :     3.379583
      pz      :     0.783421  p :     2.533034
      px      :     0.921534
      py      :     0.828079
      dz2     :     0.035581  d :     0.147573
      dxz     :     0.029762
      dyz     :     0.038434
      dx2y2   :     0.020245
      dxy     :     0.023551
      f0      :     0.003345  f :     0.015798
      f+1     :     0.001766
      f-1     :     0.002777
      f+2     :     0.002678
      f-2     :     0.002915
      f+3     :     0.001098
      f-3     :     0.001219
  8 C s       :     2.996011  s :     2.996011
      pz      :     1.022506  p :     3.025921
      px      :     1.014709
      py      :     0.988706
      dz2     :     0.012971  d :     0.039643
      dxz     :     0.010063
      dyz     :     0.000760
      dx2y2   :     0.007703
      dxy     :     0.008147
      f0      :     0.002106  f :     0.011383
      f+1     :     0.001293
      f-1     :     0.002400
      f+2     :     0.001947
      f-2     :     0.001983
      f+3     :     0.000812
      f-3     :     0.000842
  9 H s       :     0.867051  s :     0.867051
      pz      :     0.006188  p :     0.024864
      px      :     0.013193
      py      :     0.005483
 10 H s       :     0.867566  s :     0.867566
      pz      :     0.009021  p :     0.024864
      px      :     0.005171
      py      :     0.010672
 11 H s       :     0.863814  s :     0.863814
      pz      :     0.010861  p :     0.024795
      px      :     0.007502
      py      :     0.006433
 12 H s       :     0.849996  s :     0.849996
      pz      :     0.009630  p :     0.025125
      px      :     0.005286
      py      :     0.010209
 13 H s       :     0.853011  s :     0.853011
      pz      :     0.005666  p :     0.025119
      px      :     0.013769
      py      :     0.005684
 14 H s       :     0.844137  s :     0.844137
      pz      :     0.014440  p :     0.026876
      px      :     0.005921
      py      :     0.006515
 15 H s       :     0.846221  s :     0.846221
      pz      :     0.011124  p :     0.026221
      px      :     0.009286
      py      :     0.005810
 16 H s       :     0.838608  s :     0.838608
      pz      :     0.014344  p :     0.026328
      px      :     0.006503
      py      :     0.005481
 17 H s       :     0.842452  s :     0.842452
      pz      :     0.014213  p :     0.026948
      px      :     0.005647
      py      :     0.007087
 18 H s       :     0.771237  s :     0.771237
      pz      :     0.012301  p :     0.027115
      px      :     0.005487
      py      :     0.009327


                     *******************************
                     * LOEWDIN POPULATION ANALYSIS *
                     *******************************

----------------------
LOEWDIN ATOMIC CHARGES
----------------------
   0 C :   -0.275750
   1 C :   -0.256613
   2 C :   -0.069798
   3 C :   -0.067160
   4 C :   -0.165434
   5 C :   -0.145538
   6 C :   -0.166313
   7 C :   -0.089300
   8 C :   -0.100719
   9 H :    0.115271
  10 H :    0.115082
  11 H :    0.111556
  12 H :    0.145230
  13 H :    0.144370
  14 H :    0.156396
  15 H :    0.127442
  16 H :    0.138718
  17 H :    0.157280
  18 H :    0.125281

-------------------------------
LOEWDIN REDUCED ORBITAL CHARGES
-------------------------------
  0 C s       :     2.829750  s :     2.829750
      pz      :     1.040244  p :     3.115376
      px      :     1.047860
      py      :     1.027272
      dz2     :     0.032609  d :     0.301024
      dxz     :     0.063220
      dyz     :     0.083425
      dx2y2   :     0.066787
      dxy     :     0.054983
      f0      :     0.003215  f :     0.029600
      f+1     :     0.003684
      f-1     :     0.004891
      f+2     :     0.003984
      f-2     :     0.004312
      f+3     :     0.003805
      f-3     :     0.005709
  1 C s       :     2.762323  s :     2.762323
      pz      :     0.997962  p :     3.006942
      px      :     1.002647
      py      :     1.006333
      dz2     :     0.073629  d :     0.441752
      dxz     :     0.081732
      dyz     :     0.121972
      dx2y2   :     0.088827
      dxy     :     0.075591
      f0      :     0.006508  f :     0.045597
      f+1     :     0.006027
      f-1     :     0.007245
      f+2     :     0.007699
      f-2     :     0.006428
      f+3     :     0.005095
      f-3     :     0.006594
  2 C s       :     2.789847  s :     2.789847
      pz      :     1.008207  p :     2.858767
      px      :     0.943166
      py      :     0.907395
      dz2     :     0.105815  d :     0.369349
      dxz     :     0.076823
      dyz     :     0.080408
      dx2y2   :     0.055197
      dxy     :     0.051106
      f0      :     0.008283  f :     0.051834
      f+1     :     0.010706
      f-1     :     0.007723
      f+2     :     0.008872
      f-2     :     0.010365
      f+3     :     0.002758
      f-3     :     0.003127
  3 C s       :     2.774554  s :     2.774554
      pz      :     1.022343  p :     2.868219
      px      :     0.935143
      py      :     0.910734
      dz2     :     0.104800  d :     0.371778
      dxz     :     0.079227
      dyz     :     0.078150
      dx2y2   :     0.066898
      dxy     :     0.042704
      f0      :     0.008365  f :     0.052608
      f+1     :     0.010615
      f-1     :     0.007809
      f+2     :     0.009540
      f-2     :     0.010262
      f+3     :     0.003092
      f-3     :     0.002926
  4 C s       :     2.700776  s :     2.700776
      pz      :     0.983532  p :     2.880985
      px      :     0.970492
      py      :     0.926961
      dz2     :     0.114110  d :     0.522256
      dxz     :     0.098065
      dyz     :     0.091861
      dx2y2   :     0.109820
      dxy     :     0.108400
      f0      :     0.008606  f :     0.061416
      f+1     :     0.007497
      f-1     :     0.006990
      f+2     :     0.009720
      f-2     :     0.005803
      f+3     :     0.011298
      f-3     :     0.011503
  5 C s       :     2.767456  s :     2.767456
      pz      :     1.019756  p :     2.950365
      px      :     0.947833
      py      :     0.982776
      dz2     :     0.056799  d :     0.380759
      dxz     :     0.112565
      dyz     :     0.036778
      dx2y2   :     0.092731
      dxy     :     0.081885
      f0      :     0.005482  f :     0.046959
      f+1     :     0.006892
      f-1     :     0.002582
      f+2     :     0.004227
      f-2     :     0.005354
      f+3     :     0.010786
      f-3     :     0.011635
  6 C s       :     2.701208  s :     2.701208
      pz      :     0.982561  p :     2.888558
      px      :     0.988760
      py      :     0.917237
      dz2     :     0.108445  d :     0.515549
      dxz     :     0.057910
      dyz     :     0.135830
      dx2y2   :     0.109756
      dxy     :     0.103608
      f0      :     0.008524  f :     0.060997
      f+1     :     0.004417
      f-1     :     0.010166
      f+2     :     0.006530
      f-2     :     0.008771
      f+3     :     0.010582
      f-3     :     0.012004
  7 C s       :     2.788556  s :     2.788556
      pz      :     1.035441  p :     2.862710
      px      :     0.867622
      py      :     0.959647
      dz2     :     0.109808  d :     0.384975
      dxz     :     0.083085
      dyz     :     0.082213
      dx2y2   :     0.049602
      dxy     :     0.060267
      f0      :     0.008777  f :     0.053059
      f+1     :     0.005095
      f-1     :     0.013842
      f+2     :     0.009810
      f-2     :     0.009856
      f+3     :     0.002799
      f-3     :     0.002880
  8 C s       :     2.878411  s :     2.878411
      pz      :     1.040888  p :     3.005119
      px      :     0.968099
      py      :     0.996132
      dz2     :     0.045151  d :     0.175913
      dxz     :     0.031660
      dyz     :     0.053428
      dx2y2   :     0.023249
      dxy     :     0.022425
      f0      :     0.006405  f :     0.041276
      f+1     :     0.003955
      f-1     :     0.011471
      f+2     :     0.007807
      f-2     :     0.007353
      f+3     :     0.002179
      f-3     :     0.002105
  9 H s       :     0.819309  s :     0.819309
      pz      :     0.016600  p :     0.065421
      px      :     0.033176
      py      :     0.015644
 10 H s       :     0.819512  s :     0.819512
      pz      :     0.024642  p :     0.065406
      px      :     0.014321
      py      :     0.026442
 11 H s       :     0.823515  s :     0.823515
      pz      :     0.027507  p :     0.064929
      px      :     0.020749
      py      :     0.016672
 12 H s       :     0.792453  s :     0.792453
      pz      :     0.023343  p :     0.062317
      px      :     0.013688
      py      :     0.025286
 13 H s       :     0.793407  s :     0.793407
      pz      :     0.015258  p :     0.062224
      px      :     0.031451
      py      :     0.015515
 14 H s       :     0.779246  s :     0.779246
      pz      :     0.033166  p :     0.064358
      px      :     0.015052
      py      :     0.016140
 15 H s       :     0.805520  s :     0.805520
      pz      :     0.029614  p :     0.067038
      px      :     0.021723
      py      :     0.015701
 16 H s       :     0.793575  s :     0.793575
      pz      :     0.036829  p :     0.067707
      px      :     0.015694
      py      :     0.015184
 17 H s       :     0.778097  s :     0.778097
      pz      :     0.032686  p :     0.064623
      px      :     0.015735
      py      :     0.016202
 18 H s       :     0.799999  s :     0.799999
      pz      :     0.032925  p :     0.074720
      px      :     0.016260
      py      :     0.025535


                      *****************************
                      * MAYER POPULATION ANALYSIS *
                      *****************************

  NA   - Mulliken gross atomic population
  ZA   - Total nuclear charge
  QA   - Mulliken gross atomic charge
  VA   - Mayer's total valence
  BVA  - Mayer's bonded valence
  FA   - Mayer's free valence

  ATOM       NA         ZA         QA         VA         BVA        FA
  0 C      6.2982     6.0000    -0.2982     4.0053     3.7065     0.2988
  1 C      6.2690     6.0000    -0.2690     3.9796     3.6719     0.3077
  2 C      5.9563     6.0000     0.0437     3.6587     3.2249     0.4338
  3 C      5.9723     6.0000     0.0277     3.9904     3.5497     0.4407
  4 C      6.2370     6.0000    -0.2370     3.8480     3.5058     0.3422
  5 C      6.1849     6.0000    -0.1849     3.9527     3.6138     0.3388
  6 C      6.2309     6.0000    -0.2309     3.8970     3.5544     0.3426
  7 C      6.0760     6.0000    -0.0760     4.2499     3.8226     0.4273
  8 C      6.0730     6.0000    -0.0730     3.7168     3.2860     0.4308
  9 H      0.8919     1.0000     0.1081     0.9865     0.9367     0.0498
 10 H      0.8924     1.0000     0.1076     0.9869     0.9371     0.0498
 11 H      0.8886     1.0000     0.1114     0.9798     0.9301     0.0497
 12 H      0.8751     1.0000     0.1249     0.9669     0.9159     0.0509
 13 H      0.8781     1.0000     0.1219     0.9682     0.9172     0.0510
 14 H      0.8710     1.0000     0.1290     0.9617     0.9113     0.0503
 15 H      0.8724     1.0000     0.1276     0.9786     0.9296     0.0490
 16 H      0.8649     1.0000     0.1351     0.9934     0.9447     0.0487
 17 H      0.8694     1.0000     0.1306     0.9620     0.9119     0.0501
 18 H      0.7984     1.0000     0.2016     0.9728     0.9317     0.0412

  Mayer bond orders larger than 0.1
B(  0-C ,  1-C ) :   0.9327 B(  0-C ,  9-H ) :   0.9437 B(  0-C , 10-H ) :   0.9434 
B(  0-C , 11-H ) :   0.9514 B(  1-C ,  2-C ) :   0.9645 B(  1-C ,  3-C ) :  -0.1462 
B(  1-C , 12-H ) :   0.9587 B(  1-C , 13-H ) :   0.9629 B(  2-C ,  3-C ) :   2.5625 
B(  2-C ,  4-C ) :  -0.2339 B(  3-C ,  4-C ) :   1.1337 B(  4-C ,  5-C ) :   0.8707 
B(  4-C ,  6-C ) :   0.8395 B(  4-C , 14-H ) :   0.9450 B(  5-C ,  6-C ) :   0.8580 
B(  5-C , 15-H ) :   0.9418 B(  5-C , 16-H ) :   0.9352 B(  6-C ,  7-C ) :   1.2024 
B(  6-C ,  8-C ) :  -0.2114 B(  6-C , 17-H ) :   0.9470 B(  7-C ,  8-C ) :   2.5617 
B(  8-C , 18-H ) :   0.8806 


                *******************************************
                * RELAXED MP2 DENSITY POPULATION ANALYSIS *
                *******************************************

------------------------------------------------------------------------------
                           ORCA POPULATION ANALYSIS
------------------------------------------------------------------------------
[...]
      f+1     :     0.002281
      f-1     :     0.001936
      f+2     :     0.002803
      f-2     :     0.002044
      f+3     :     0.001062
      f-3     :     0.001040
  3 C s       :     3.288235  s :     3.288235
      pz      :     0.804964  p :     2.595151
      px      :     0.876156
      py      :     0.914031
      dz2     :     0.020973  d :     0.088465
      dxz     :     0.018924
      dyz     :     0.017917
      dx2y2   :     0.019160
      dxy     :     0.011492
      f0      :     0.002943  f :     0.014559
      f+1     :     0.002273
      f-1     :     0.001936
      f+2     :     0.003022
      f-2     :     0.002096
      f+3     :     0.001227
      f-3     :     0.001062
  4 C s       :     3.261081  s :     3.261081
      pz      :     0.962308  p :     2.833344
      px      :     0.950379
      py      :     0.920656
      dz2     :     0.029018  d :     0.125423
      dxz     :     0.020199
      dyz     :     0.020260
      dx2y2   :     0.028372
      dxy     :     0.027574
      f0      :     0.001772  f :     0.013077
      f+1     :     0.001648
      f-1     :     0.001569
      f+2     :     0.001787
      f-2     :     0.001538
      f+3     :     0.002351
      f-3     :     0.002413
  5 C s       :     3.208728  s :     3.208728
      pz      :     1.068853  p :     2.912450
      px      :     0.838617
      py      :     1.004980
      dz2     :     0.015189  d :     0.090884
      dxz     :     0.019803
      dyz     :     0.012575
      dx2y2   :     0.022442
      dxy     :     0.020875
      f0      :     0.001301  f :     0.011227
      f+1     :     0.002190
      f-1     :     0.000710
      f+2     :     0.001298
      f-2     :     0.001312
      f+3     :     0.002161
      f-3     :     0.002256
  6 C s       :     3.238864  s :     3.238864
      pz      :     0.963569  p :     2.846870
      px      :     1.039516
      py      :     0.843785
      dz2     :     0.028284  d :     0.127617
      dxz     :     0.019078
      dyz     :     0.025039
      dx2y2   :     0.028255
      dxy     :     0.026961
      f0      :     0.001733  f :     0.013084
      f+1     :     0.000934
      f-1     :     0.002337
      f+2     :     0.001596
      f-2     :     0.001736
      f+3     :     0.002328
      f-3     :     0.002420
  7 C s       :     3.267756  s :     3.267756
      pz      :     0.831906  p :     2.592951
      px      :     0.937879
      py      :     0.823167
      dz2     :     0.030804  d :     0.122837
      dxz     :     0.025482
      dyz     :     0.029624
      dx2y2   :     0.016824
      dxy     :     0.020103
      f0      :     0.003227  f :     0.015151
      f+1     :     0.001723
      f-1     :     0.002628
      f+2     :     0.002549
      f-2     :     0.002767
      f+3     :     0.001073
      f-3     :     0.001185
  8 C s       :     3.048775  s :     3.048775
      pz      :     1.047057  p :     3.053131
      px      :     1.010650
      py      :     0.995424
      dz2     :     0.008844  d :     0.028414
      dxz     :     0.007190
      dyz     :     0.000641
      dx2y2   :     0.005586
      dxy     :     0.006153
      f0      :     0.001908  f :     0.010483
      f+1     :     0.001200
      f-1     :     0.002232
      f+2     :     0.001777
      f-2     :     0.001817
      f+3     :     0.000763
      f-3     :     0.000785
  9 H s       :     0.846757  s :     0.846757
      pz      :     0.006195  p :     0.023814
      px      :     0.012057
      py      :     0.005562
 10 H s       :     0.847095  s :     0.847095
      pz      :     0.008516  p :     0.023816
      px      :     0.005354
      py      :     0.009946
 11 H s       :     0.845791  s :     0.845791
      pz      :     0.010118  p :     0.023788
      px      :     0.007248
      py      :     0.006422
 12 H s       :     0.832393  s :     0.832393
      pz      :     0.008998  p :     0.024021
      px      :     0.005449
      py      :     0.009575
 13 H s       :     0.835248  s :     0.835248
      pz      :     0.005763  p :     0.024015
      px      :     0.012527
      py      :     0.005725
 14 H s       :     0.836280  s :     0.836280
      pz      :     0.013083  p :     0.025621
      px      :     0.005985
      py      :     0.006553
 15 H s       :     0.835725  s :     0.835725
      pz      :     0.010304  p :     0.025208
      px      :     0.008810
      py      :     0.006094
 16 H s       :     0.827429  s :     0.827429
      pz      :     0.013028  p :     0.025167
      px      :     0.006398
      py      :     0.005741
 17 H s       :     0.834481  s :     0.834481
      pz      :     0.012888  p :     0.025686
      px      :     0.005880
      py      :     0.006918
 18 H s       :     0.785839  s :     0.785839
      pz      :     0.011320  p :     0.025763
      px      :     0.005596
      py      :     0.008847


                     *******************************
                     * LOEWDIN POPULATION ANALYSIS *
                     *******************************

----------------------
LOEWDIN ATOMIC CHARGES
----------------------
   0 C :   -0.300902
   1 C :   -0.278340
   2 C :   -0.065939
   3 C :   -0.061058
   4 C :   -0.178996
   5 C :   -0.163048
   6 C :   -0.179073
   7 C :   -0.089208
   8 C :   -0.093652
   9 H :    0.123731
  10 H :    0.123578
  11 H :    0.120238
  12 H :    0.153845
  13 H :    0.153024
  14 H :    0.164205
  15 H :    0.134997
  16 H :    0.145538
  17 H :    0.165005
  18 H :    0.126056

-------------------------------
LOEWDIN REDUCED ORBITAL CHARGES
-------------------------------
  0 C s       :     2.834479  s :     2.834479
      pz      :     1.052539  p :     3.149826
      px      :     1.060727
      py      :     1.036560
      dz2     :     0.032195  d :     0.287323
      dxz     :     0.059101
      dyz     :     0.078747
      dx2y2   :     0.065156
      dxy     :     0.052125
      f0      :     0.003167  f :     0.029273
      f+1     :     0.003680
      f-1     :     0.004879
      f+2     :     0.003884
      f-2     :     0.004183
      f+3     :     0.003737
      f-3     :     0.005744
  1 C s       :     2.767182  s :     2.767182
      pz      :     1.008411  p :     3.033394
      px      :     1.012353
      py      :     1.012631
      dz2     :     0.074998  d :     0.432149
      dxz     :     0.078087
      dyz     :     0.117513
      dx2y2   :     0.088158
      dxy     :     0.073393
      f0      :     0.006681  f :     0.045615
      f+1     :     0.006031
      f-1     :     0.007192
      f+2     :     0.007688
      f-2     :     0.006242
      f+3     :     0.005101
      f-3     :     0.006681
  2 C s       :     2.793460  s :     2.793460
      pz      :     1.007214  p :     2.862893
      px      :     0.943936
      py      :     0.911743
      dz2     :     0.101109  d :     0.357191
      dxz     :     0.075335
      dyz     :     0.078049
      dx2y2   :     0.053548
      dxy     :     0.049150
      f0      :     0.008211  f :     0.052396
      f+1     :     0.010857
      f-1     :     0.007869
      f+2     :     0.008964
      f-2     :     0.010589
      f+3     :     0.002806
      f-3     :     0.003099
  3 C s       :     2.778937  s :     2.778937
      pz      :     1.016695  p :     2.869800
      px      :     0.939890
      py      :     0.913216
      dz2     :     0.100712  d :     0.358995
      dxz     :     0.077331
      dyz     :     0.076232
      dx2y2   :     0.063213
      dxy     :     0.041507
      f0      :     0.008448  f :     0.053325
      f+1     :     0.010939
      f-1     :     0.007972
      f+2     :     0.009351
      f-2     :     0.010599
      f+3     :     0.003051
      f-3     :     0.002966
  4 C s       :     2.707312  s :     2.707312
      pz      :     0.991101  p :     2.892357
      px      :     0.970929
      py      :     0.930327
      dz2     :     0.111983  d :     0.518185
      dxz     :     0.097239
      dyz     :     0.091979
      dx2y2   :     0.108395
      dxy     :     0.108589
      f0      :     0.008822  f :     0.061142
      f+1     :     0.007236
      f-1     :     0.006825
      f+2     :     0.010042
      f-2     :     0.005830
      f+3     :     0.011106
      f-3     :     0.011282
  5 C s       :     2.773883  s :     2.773883
      pz      :     1.028860  p :     2.973406
      px      :     0.951212
      py      :     0.993334
      dz2     :     0.052751  d :     0.369528
      dxz     :     0.110601
      dyz     :     0.037878
      dx2y2   :     0.090202
      dxy     :     0.078096
      f0      :     0.005525  f :     0.046232
      f+1     :     0.006573
      f-1     :     0.002537
      f+2     :     0.004267
      f-2     :     0.005439
      f+3     :     0.010570
      f-3     :     0.011321
  6 C s       :     2.707887  s :     2.707887
      pz      :     0.991253  p :     2.898395
      px      :     0.988420
      py      :     0.918721
      dz2     :     0.106596  d :     0.511950
      dxz     :     0.059646
      dyz     :     0.133166
      dx2y2   :     0.110095
      dxy     :     0.102447
      f0      :     0.008790  f :     0.060842
      f+1     :     0.004517
      f-1     :     0.009640
      f+2     :     0.006671
      f-2     :     0.008996
      f+3     :     0.010465
      f-3     :     0.011764
  7 C s       :     2.791907  s :     2.791907
      pz      :     1.031160  p :     2.872987
      px      :     0.884399
      py      :     0.957428
      dz2     :     0.105208  d :     0.370798
      dxz     :     0.079923
      dyz     :     0.081024
      dx2y2   :     0.047454
      dxy     :     0.057190
      f0      :     0.008785  f :     0.053517
      f+1     :     0.005161
      f-1     :     0.014224
      f+2     :     0.009932
      f-2     :     0.009768
      f+3     :     0.002806
      f-3     :     0.002839
  8 C s       :     2.885592  s :     2.885592
      pz      :     1.040844  p :     3.001122
      px      :     0.960667
      py      :     0.999611
      dz2     :     0.040618  d :     0.164520
      dxz     :     0.029619
      dyz     :     0.051843
      dx2y2   :     0.021421
      dxy     :     0.021018
      f0      :     0.006494  f :     0.042417
      f+1     :     0.004078
      f-1     :     0.011780
      f+2     :     0.008019
      f-2     :     0.007648
      f+3     :     0.002234
      f-3     :     0.002164
  9 H s       :     0.810065  s :     0.810065
      pz      :     0.017061  p :     0.066204
      px      :     0.033032
      py      :     0.016111
 10 H s       :     0.810229  s :     0.810229
      pz      :     0.024794  p :     0.066194
      px      :     0.014880
      py      :     0.026520
 11 H s       :     0.813896  s :     0.813896
      pz      :     0.027629  p :     0.065866
      px      :     0.021074
      py      :     0.017163
 12 H s       :     0.782999  s :     0.782999
      pz      :     0.023520  p :     0.063157
      px      :     0.014209
      py      :     0.025428
 13 H s       :     0.783897  s :     0.783897
      pz      :     0.015877  p :     0.063080
      px      :     0.031225
      py      :     0.015977
 14 H s       :     0.770846  s :     0.770846
      pz      :     0.032774  p :     0.064949
      px      :     0.015528
      py      :     0.016647
 15 H s       :     0.797144  s :     0.797144
      pz      :     0.029472  p :     0.067860
      px      :     0.021918
      py      :     0.016469
 16 H s       :     0.786277  s :     0.786277
      pz      :     0.036306  p :     0.068185
      px      :     0.016026
      py      :     0.015853
 17 H s       :     0.769820  s :     0.769820
      pz      :     0.032304  p :     0.065175
      px      :     0.016186
      py      :     0.016685
 18 H s       :     0.799604  s :     0.799604
      pz      :     0.032165  p :     0.074339
      px      :     0.016754
      py      :     0.025420


                      *****************************
                      * MAYER POPULATION ANALYSIS *
                      *****************************

  NA   - Mulliken gross atomic population
  ZA   - Total nuclear charge
  QA   - Mulliken gross atomic charge
  VA   - Mayer's total valence
  BVA  - Mayer's bonded valence
  FA   - Mayer's free valence

  ATOM       NA         ZA         QA         VA         BVA        FA
  0 C      6.3604     6.0000    -0.3604     3.9864     3.6902     0.2963
  1 C      6.3073     6.0000    -0.3073     4.0174     3.7127     0.3047
  2 C      5.9498     6.0000     0.0502     3.7716     3.3468     0.4248
  3 C      5.9864     6.0000     0.0136     4.1746     3.7459     0.4286
  4 C      6.2329     6.0000    -0.2329     3.9351     3.5980     0.3372
  5 C      6.2233     6.0000    -0.2233     3.9233     3.5876     0.3358
  6 C      6.2264     6.0000    -0.2264     3.9719     3.6343     0.3376
  7 C      5.9987     6.0000     0.0013     4.2768     3.8623     0.4145
  8 C      6.1408     6.0000    -0.1408     3.8047     3.3785     0.4262
  9 H      0.8706     1.0000     0.1294     0.9799     0.9309     0.0490
 10 H      0.8709     1.0000     0.1291     0.9802     0.9311     0.0491
 11 H      0.8696     1.0000     0.1304     0.9740     0.9251     0.0489
 12 H      0.8564     1.0000     0.1436     0.9589     0.9088     0.0501
 13 H      0.8593     1.0000     0.1407     0.9597     0.9096     0.0502
 14 H      0.8619     1.0000     0.1381     0.9561     0.9066     0.0495
 15 H      0.8609     1.0000     0.1391     0.9728     0.9245     0.0483
 16 H      0.8526     1.0000     0.1474     0.9893     0.9413     0.0480
 17 H      0.8602     1.0000     0.1398     0.9562     0.9070     0.0492
 18 H      0.8116     1.0000     0.1884     0.9755     0.9344     0.0411

  Mayer bond orders larger than 0.1
B(  0-C ,  1-C ) :   0.9380 B(  0-C ,  9-H ) :   0.9358 B(  0-C , 10-H ) :   0.9356 
B(  0-C , 11-H ) :   0.9393 B(  1-C ,  2-C ) :   0.9433 B(  1-C , 12-H ) :   0.9402 
B(  1-C , 13-H ) :   0.9431 B(  2-C ,  3-C ) :   2.5854 B(  2-C ,  4-C ) :  -0.1457 
B(  3-C ,  4-C ) :   1.1777 B(  4-C ,  5-C ) :   0.8460 B(  4-C ,  6-C ) :   0.8114 
B(  4-C , 14-H ) :   0.9332 B(  5-C ,  6-C ) :   0.8370 B(  5-C , 15-H ) :   0.9252 
B(  5-C , 16-H ) :   0.9302 B(  6-C ,  7-C ) :   1.2495 B(  6-C ,  8-C ) :  -0.1396 
B(  6-C , 17-H ) :   0.9338 B(  7-C ,  8-C ) :   2.5492 B(  8-C , 18-H ) :   0.8953 



-------
TIMINGS
-------

Total time                :  775.277 sec
Integral trafo            :    6.212 sec (  0.8%)
FC preparation            :    3.482 sec (  0.4%)
I/O of integrals          :    0.049 sec (  0.0%)
K(i,j) Operators          :    8.110 sec (  1.0%)
T(i,j) pair energies      :    0.758 sec (  0.1%)
V-calculation             :    0.018 sec (  0.0%)
V**(-1/2)                 :    0.122 sec (  0.0%)
Gamma(ia|P)               :    7.949 sec (  1.0%)
Gamma-Trafo               :    1.378 sec (  0.2%)
D(virtual)                :    3.065 sec (  0.4%)
D(internal)               :    2.904 sec (  0.4%)
W(virtual)                :    0.000 sec (  0.0%)
W(internal)               :    0.000 sec (  0.0%)
L(virtual)                :    8.579 sec (  1.1%)
L(internal)               :    0.175 sec (  0.0%)
G(D)                      :   82.734 sec ( 10.7%)
G(Z)                      :    0.000 sec (  0.0%)
Z-Vector Solution         :  649.037 sec ( 83.7%)
3-Index Derivative        :    0.000 sec (  0.0%)
2-Index Derivative        :    0.000 sec (  0.0%)
Separable Gradient (RIJ)  :    0.000 sec (  0.0%)
Separable Gradient (X)    :    0.000 sec (  0.0%)


---------------------------------------
MP2 TOTAL ENERGY:     -348.015511882 Eh
---------------------------------------

-------------------------   --------------------
FINAL SINGLE POINT ENERGY      -348.015511881980
-------------------------   --------------------


                            ***************************************
                            *     ORCA property calculations      *
                            ***************************************

                                    ---------------------
                                    Active property flags
                                    ---------------------
   (+) Dipole Moment


------------------------------------------------------------------------------
                       ORCA ELECTRIC PROPERTIES CALCULATION
------------------------------------------------------------------------------

Dipole Moment Calculation                       ... on
Quadrupole Moment Calculation                   ... off
Polarizability Calculation                      ... off
GBWName                                         ... dsgdb9nsd_097777.gbw
Electron density file                           ... dsgdb9nsd_097777.scfp.tmp

-------------
DIPOLE MOMENT
-------------
                                X             Y             Z
Electronic contribution:      0.98209      -6.38447      -4.35128
Nuclear contribution   :     -0.89849       6.64995       4.29614
                        -----------------------------------------
Total Dipole Moment    :      0.08360       0.26549      -0.05514
                        -----------------------------------------
Magnitude (a.u.)       :      0.28375
Magnitude (Debye)      :      0.72123


                         *** MP2 UNRELAXED DENSITY ***

------------------------------------------------------------------------------
                       ORCA ELECTRIC PROPERTIES CALCULATION
------------------------------------------------------------------------------

Dipole Moment Calculation                       ... on
Quadrupole Moment Calculation                   ... off
Polarizability Calculation                      ... off
GBWName                                         ... dsgdb9nsd_097777.gbw
Electron density file                           ... dsgdb9nsd_097777.pmp2ur

-------------
DIPOLE MOMENT
-------------
                                X             Y             Z
Electronic contribution:      0.98092      -6.38637      -4.35023
Nuclear contribution   :     -0.89849       6.64995       4.29614
                        -----------------------------------------
Total Dipole Moment    :      0.08243       0.26359      -0.05409
                        -----------------------------------------
Magnitude (a.u.)       :      0.28142
Magnitude (Debye)      :      0.71532


                           *** MP2 RELAXED DENSITY ***

------------------------------------------------------------------------------
                       ORCA ELECTRIC PROPERTIES CALCULATION
------------------------------------------------------------------------------

Dipole Moment Calculation                       ... on
Quadrupole Moment Calculation                   ... off
Polarizability Calculation                      ... off
GBWName                                         ... dsgdb9nsd_097777.gbw
Electron density file                           ... dsgdb9nsd_097777.pmp2re

-------------
DIPOLE MOMENT
-------------
                                X             Y             Z
Electronic contribution:      0.96050      -6.41246      -4.33620
Nuclear contribution   :     -0.89849       6.64995       4.29614
                        -----------------------------------------
Total Dipole Moment    :      0.06201       0.23749      -0.04005
                        -----------------------------------------
Magnitude (a.u.)       :      0.24870
Magnitude (Debye)      :      0.63214


Timings for individual modules:

Sum of individual times         ...      923.131 sec (=  15.386 min)
GTO integral calculation        ...        0.528 sec (=   0.009 min)   0.1 %
SCF iterations                  ...      147.187 sec (=   2.453 min)  15.9 %
MP2 module                      ...      775.416 sec (=  12.924 min)  84.0 %
                             ****ORCA TERMINATED NORMALLY****
TOTAL RUN TIME: 0 days 0 hours 15 minutes 23 seconds 615 msec
