
                                 *****************
                                 * O   R   C   A *
                                 *****************

           --- An Ab Initio, DFT and Semiempirical electronic structure package ---

                  #######################################################
                  #                        -***-                        #
                  #  Department of molecular theory and spectroscopy    #
                  #              Directorship: Frank Neese              #
                  # Max Planck Institute for Chemical Energy Conversion #
                  #                  D-45470 Muelheim/Ruhr              #
                  #                       Germany                       #
                  #                                                     #
                  #                  All rights reserved                #
                  #                        -***-                        #
                  #######################################################


                         Program Version 3.0.3 - RELEASE   -


 With contributions from (in alphabetic order):
   Ute Becker             : Parallelization
   Dmytro Bykov           : SCF Hessian
   Dmitry Ganyushin       : Spin-Orbit,Spin-Spin,Magnetic field MRCI
   Andreas Hansen         : Spin unrestricted coupled pair/coupled cluster methods
   Dimitrios Liakos       : Extrapolation schemes; parallel MDCI
   Robert Izsak           : Overlap fitted RIJCOSX, COSX-SCS-MP3
   Christian Kollmar      : KDIIS, OOCD, Brueckner-CCSD(T), CCSD density
   Simone Kossmann        : Meta GGA functionals, TD-DFT gradient, OOMP2, MP2 Hessian
   Taras Petrenko         : DFT Hessian,TD-DFT gradient, ASA and ECA modules, normal mode analysis, Resonance Raman, ABS, FL, XAS/XES, NRVS
   Christoph Reimann      : Effective Core Potentials
   Michael Roemelt        : Restricted open shell CIS
   Christoph Riplinger    : Improved optimizer, TS searches, QM/MM, DLPNO-CCSD
   Barbara Sandhoefer     : DKH picture change effects
   Igor Schapiro          : Molecular dynamics
   Kantharuban Sivalingam : CASSCF convergence, NEVPT2
   Boris Wezisla          : Elementary symmetry handling
   Frank Wennmohs         : Technical directorship


 We gratefully acknowledge several colleagues who have allowed us to
 interface, adapt or use parts of their codes:
   Stefan Grimme, W. Hujo, H. Kruse, T. Risthaus : VdW corrections, initial TS optimization,
                                                   DFT functionals, gCP
   Ed Valeev                                     : LibInt (2-el integral package), F12 methods
   Garnet Chan, S. Sharma, R. Olivares           : DMRG
   Ulf Ekstrom                                   : XCFun DFT Library
   Mihaly Kallay                                 : mrcc  (arbitrary order and MRCC methods)
   Andreas Klamt, Michael Diedenhofen            : otool_cosmo (COSMO solvation model)
   Frank Weinhold                                : gennbo (NPA and NBO analysis)
   Christopher J. Cramer and Donald G. Truhlar   : smd solvation model


 Your calculation uses the libint2 library for the computation of 2-el integrals
 For citations please refer to: http://libint.valeyev.net

 This ORCA versions uses:
   CBLAS   interface :  Fast vector & matrix operations
   LAPACKE interface :  Fast linear algebra routines
   SCALAPACK package :  Parallel linear algebra routines


Your calculation utilizes the basis: Ahlrichs-TZV
Cite in your paper:
H - Kr: A. Schaefer, H. Horn and R. Ahlrichs, J. Chem. Phys. 97, 2571 (1992).

The def2-TZV basis will be loaded
Cite in your paper:
 	F. Weigend, R. Ahlrichs, Phys. Chem. Chem. Phys. 2005, 7, 3297.

================================================================================
                                        WARNINGS
                       Please study these warnings very carefully!
================================================================================
Now building the actual basis set


INFO   : the flag for use of LIBINT has been found!

================================================================================
                                       INPUT FILE
================================================================================
NAME = dsgdb9nsd_064950.inp
|  1> ! RI-MP2 RIJK def2-TZVP def2-TZVP/C def2-TZVP/JK TIGHTSCF
|  2> % maxcore 2000
|  3> % mp2 density relaxed end
|  4> *xyz 0 1
|  5>  O       -0.4020831968     1.1850495512    -0.5285829634 
|  6>  C       -0.0733518580    -0.0864774867    -0.0306410625 
|  7>  C       -0.3036765767    -0.3363044789     1.4526158019 
|  8>  C       -1.2656492851    -0.8849398043     0.4302900564 
|  9>  C        1.0253270537    -0.7461337053    -0.6879847378 
| 10>  C        1.9755877608    -1.2486872758    -1.2344358013 
| 11>  C        3.0673998541    -1.9133106794    -1.9291565421 
| 12>  C        2.5776337261    -3.0589290881    -2.8198237719 
| 13>  O        3.1566023886    -4.1037383505    -2.9380291161 
| 14>  H        0.3654039385     1.7544094171    -0.4017016616 
| 15>  H        0.3601670143    -1.0220423726     1.9656305963 
| 16>  H       -0.6220033186     0.5267629433     2.0261222575 
| 17>  H       -2.2218142046    -0.3866865063     0.3208572171 
| 18>  H       -1.2690746346    -1.9501619827     0.2349954811 
| 19>  H        3.5793601898    -1.1973859994    -2.5908408726 
| 20>  H        3.8243552087    -2.3104047178    -1.2446883589 
| 21>  H        1.6343887799    -2.8389280737    -3.3650295518 
| 22> *
| 23> 
| 24>                          ****END OF INPUT****
================================================================================

                       ****************************
                       * Single Point Calculation *
                       ****************************

---------------------------------
CARTESIAN COORDINATES (ANGSTROEM)
---------------------------------
  O     -0.402083    1.185050   -0.528583
  C     -0.073352   -0.086477   -0.030641
  C     -0.303677   -0.336304    1.452616
  C     -1.265649   -0.884940    0.430290
  C      1.025327   -0.746134   -0.687985
  C      1.975588   -1.248687   -1.234436
  C      3.067400   -1.913311   -1.929157
  C      2.577634   -3.058929   -2.819824
  O      3.156602   -4.103738   -2.938029
  H      0.365404    1.754409   -0.401702
  H      0.360167   -1.022042    1.965631
  H     -0.622003    0.526763    2.026122
  H     -2.221814   -0.386687    0.320857
  H     -1.269075   -1.950162    0.234995
  H      3.579360   -1.197386   -2.590841
  H      3.824355   -2.310405   -1.244688
  H      1.634389   -2.838928   -3.365030

----------------------------
CARTESIAN COORDINATES (A.U.)
----------------------------
  NO LB      ZA    FRAG    MASS        X           Y           Z
   0 O     8.0000    0    15.999         -0.759827125003562          2.239419106894291         -0.998877039882520
   1 C     6.0000    0    12.011         -0.138614923034281         -0.163418766612817         -0.057903216577364
   2 C     6.0000    0    12.011         -0.573865563249731         -0.635523362732098          2.745046043397406
   3 C     6.0000    0    12.011         -2.391730530432219         -1.672293875132868          0.813130364745529
   4 C     6.0000    0    12.011          1.937587329193369         -1.409988362304907         -1.300102738759620
   5 C     6.0000    0    12.011          3.733319821438727         -2.359676978174194         -2.332745594364631
   6 C     6.0000    0    12.011          5.796545667479005         -3.615633193172806         -3.645577534031524
   7 C     6.0000    0    12.011          4.871021815887984         -5.780538239594473         -5.328694674811828
   8 O     8.0000    0    15.999          5.965114028135667         -7.754941607714739         -5.552070402915725
   9 H     1.0000    0     1.008          0.690513372021204          3.315353325091420         -0.759106127965111
  10 H     1.0000    0     1.008          0.680617019499099         -1.931380181477101          3.714503507463323
  11 H     1.0000    0     1.008         -1.175415926544167          0.995437700335288          3.828816180517274
  12 H     1.0000    0     1.008         -4.198620367150078         -0.730731596589815          0.606332268411115
  13 H     1.0000    0     1.008         -2.398203502900183         -3.685272064087874          0.444077101988068
  14 H     1.0000    0     1.008          6.764010493382392         -2.262731615457596         -4.895979705783560
  15 H     1.0000    0     1.008          7.226983983278253         -4.366032175161615         -2.352120120400884
  16 H     1.0000    0     1.008          3.088547190364699         -5.364796573193607         -6.358984285453777

--------------------------------
INTERNAL COORDINATES (ANGSTROEM)
--------------------------------
 O      0   0   0   0.000000     0.000     0.000
 C      1   0   0   1.404561     0.000     0.000
 C      2   1   0   1.521681   117.308     0.000
 C      3   2   1   1.507164    59.681   102.903
 C      2   1   3   1.440258   115.554   211.563
 C      5   2   1   1.205887   177.224    47.002
 C      6   5   2   1.454790   176.557   203.053
 C      7   6   5   1.531535   112.300     3.031
 O      8   7   6   1.200335   123.650   219.251
 H      1   2   3   0.964005   107.559    86.669
 H      3   2   1   1.083563   118.207   211.548
 H      3   2   1   1.084033   115.431   354.627
 H      4   3   2   1.083736   117.663   255.301
 H      4   3   2   1.082982   118.841   107.685
 H      7   6   5   1.101126   109.808   121.441
 H      7   6   5   1.095062   112.703   240.439
 H      8   7   6   1.111468   114.117    39.869

---------------------------
INTERNAL COORDINATES (A.U.)
---------------------------
 O      0   0   0   0.000000     0.000     0.000
 C      1   0   0   2.654236     0.000     0.000
 C      2   1   0   2.875561   117.308     0.000
 C      3   2   1   2.848126    59.681   102.903
 C      2   1   3   2.721693   115.554   211.563
 C      5   2   1   2.278797   177.224    47.002
 C      6   5   2   2.749155   176.557   203.053
 C      7   6   5   2.894182   112.300     3.031
 O      8   7   6   2.268304   123.650   219.251
 H      1   2   3   1.821706   107.559    86.669
 H      3   2   1   2.047637   118.207   211.548
 H      3   2   1   2.048525   115.431   354.627
 H      4   3   2   2.047964   117.663   255.301
 H      4   3   2   2.046539   118.841   107.685
 H      7   6   5   2.080826   109.808   121.441
 H      7   6   5   2.069368   112.703   240.439
 H      8   7   6   2.100370   114.117    39.869

---------------------
BASIS SET INFORMATION
---------------------
There are 3 groups of distinct atoms

 Group   1 Type O   : 11s6p2d1f contracted to 5s3p2d1f pattern {62111/411/11/1}
 Group   2 Type C   : 11s6p2d1f contracted to 5s3p2d1f pattern {62111/411/11/1}
 Group   3 Type H   : 5s1p contracted to 3s1p pattern {311/1}

Atom   0O    basis set group =>   1
Atom   1C    basis set group =>   2
Atom   2C    basis set group =>   2
Atom   3C    basis set group =>   2
Atom   4C    basis set group =>   2
Atom   5C    basis set group =>   2
Atom   6C    basis set group =>   2
Atom   7C    basis set group =>   2
Atom   8O    basis set group =>   1
Atom   9H    basis set group =>   3
Atom  10H    basis set group =>   3
Atom  11H    basis set group =>   3
Atom  12H    basis set group =>   3
Atom  13H    basis set group =>   3
Atom  14H    basis set group =>   3
Atom  15H    basis set group =>   3
Atom  16H    basis set group =>   3
-------------------------------
AUXILIARY BASIS SET INFORMATION
-------------------------------
There are 3 groups of distinct atoms

 Group   1 Type O   : 14s10p6d2f1g contracted to 10s8p4d2f1g pattern {5111111111/31111111/3111/11/1}
 Group   2 Type C   : 14s10p6d2f1g contracted to 10s8p5d1f1g pattern {5111111111/31111111/21111/2/1}
 Group   3 Type H   : 4s2p2d contracted to 2s2p2d pattern {31/11/11}

Atom   0O    basis set group =>   1
Atom   1C    basis set group =>   2
Atom   2C    basis set group =>   2
Atom   3C    basis set group =>   2
Atom   4C    basis set group =>   2
Atom   5C    basis set group =>   2
Atom   6C    basis set group =>   2
Atom   7C    basis set group =>   2
Atom   8O    basis set group =>   1
Atom   9H    basis set group =>   3
Atom  10H    basis set group =>   3
Atom  11H    basis set group =>   3
Atom  12H    basis set group =>   3
Atom  13H    basis set group =>   3
Atom  14H    basis set group =>   3
Atom  15H    basis set group =>   3
Atom  16H    basis set group =>   3
------------------------------------------------------------------------------
                           ORCA GTO INTEGRAL CALCULATION
                           -- RI-GTO INTEGRALS CHOSEN --
------------------------------------------------------------------------------

                         BASIS SET STATISTICS AND STARTUP INFO

Gaussian basis set:
 # of primitive gaussian shells          ...  228
 # of primitive gaussian functions       ...  478
 # of contracted shells                  ...  131
 # of contracted basis functions         ...  327
 Highest angular momentum                ...    3
 Maximum contraction depth               ...    6
Auxiliary gaussian basis set:
 # of primitive gaussian shells          ...  361
 # of primitive gaussian functions       ... 1033
 # of contracted shells                  ...  273
 # of contracted aux-basis functions     ...  823
 Highest angular momentum                ...    4
 Maximum contraction depth               ...    5
Ratio of auxiliary to basis functions    ...  2.52
Integral package used                  ... LIBINT
 One Electron integrals                  ... done
 Ordering auxiliary basis shells         ... done
 Integral threshhold             Thresh  ...  2.500e-11
 Primitive cut-off               TCut    ...  2.500e-12
 Pre-screening matrix                    ... done
 Shell pair data                         ... 
 Ordering of the shell pairs             ... done (   0.001 sec) 7252 of 8646 pairs
 Determination of significant pairs      ... done (   0.000 sec)
 Creation of shell pair data             ... done (   0.002 sec)
 Storage of shell pair data              ... done (   0.001 sec)
 Shell pair data done in (   0.004 sec)
 Computing two index integrals           ... done
 Cholesky decomposition of the V-matrix  ... done


Timings:
 Total evaluation time                   ...   0.363 sec (  0.006 min)
 One electron matrix time                ...   0.073 sec (  0.001 min) = 20.1%
 Schwartz matrix evaluation time         ...   0.207 sec (  0.003 min) = 56.8%
 Two index repulsion integral time       ...   0.021 sec (  0.000 min) =  5.8%
 Cholesky decomposition of V             ...   0.030 sec (  0.001 min) =  8.4%
 Three index repulsion integral time     ...   0.000 sec (  0.000 min) =  0.0%

-------------------------------------------------------------------------------
                                 ORCA SCF
-------------------------------------------------------------------------------

------------
SCF SETTINGS
------------
Hamiltonian:
 Ab initio Hamiltonian  Method          .... Hartree-Fock(GTOs)
 RI-approximation to the Coulomb term is turned on
   Number of auxiliary basis functions  .... 823
   RI-JK (J+K treated both via RI)      .... on


General Settings:
 Integral files         IntName         .... dsgdb9nsd_064950
 Hartree-Fock type      HFTyp           .... RHF
 Total Charge           Charge          ....    0
 Multiplicity           Mult            ....    1
 Number of Electrons    NEL             ....   66
 Basis Dimension        Dim             ....  327
 Nuclear Repulsion      ENuc            ....    388.2549088693 Eh

Convergence Acceleration:
 DIIS                   CNVDIIS         .... on
   Start iteration      DIISMaxIt       ....    12
   Startup error        DIISStart       ....  0.200000
   # of expansion vecs  DIISMaxEq       ....     5
   Bias factor          DIISBfac        ....   1.050
   Max. coefficient     DIISMaxC        ....  10.000
 Newton-Raphson         CNVNR           .... off
 SOSCF                  CNVSOSCF        .... on
   Start iteration      SOSCFMaxIt      ....   150
   Startup grad/error   SOSCFStart      ....  0.003300
 Level Shifting         CNVShift        .... on
   Level shift para.    LevelShift      ....    0.2500
   Turn off err/grad.   ShiftErr        ....    0.0010
 Zerner damping         CNVZerner       .... off
 Static damping         CNVDamp         .... on
   Fraction old density DampFac         ....    0.7000
   Max. Damping (<1)    DampMax         ....    0.9800
   Min. Damping (>=0)   DampMin         ....    0.0000
   Turn off err/grad.   DampErr         ....    0.1000
 Fernandez-Rico         CNVRico         .... off

SCF Procedure:
 Maximum # iterations   MaxIter         ....   125
 SCF integral mode      SCFMode         .... Direct
   Integral package                     .... LIBINT
 Reset frequeny         DirectResetFreq ....    20
 Integral Threshold     Thresh          ....  2.500e-11 Eh
 Primitive CutOff       TCut            ....  2.500e-12 Eh

Convergence Tolerance:
 Convergence Check Mode ConvCheckMode   .... Total+1el-Energy
 Energy Change          TolE            ....  1.000e-08 Eh
 1-El. energy change                    ....  1.000e-05 Eh
 Orbital Gradient       TolG            ....  1.000e-05
 Orbital Rotation angle TolX            ....  1.000e-05
 DIIS Error             TolErr          ....  5.000e-07


Diagonalization of the overlap matrix:
Smallest eigenvalue                        ... 9.791e-06
Time for diagonalization                   ...    0.030 sec
Threshold for overlap eigenvalues          ... 1.000e-08
Number of eigenvalues below threshold      ... 0
Time for construction of square roots      ...    0.015 sec
Total time needed                          ...    0.046 sec

-------------------
DFT GRID GENERATION
-------------------

General Integration Accuracy     IntAcc      ...  4.340
Radial Grid Type                 RadialGrid  ... Gauss-Chebyshev
Angular Grid (max. acc.)         AngularGrid ... Lebedev-110
Angular grid pruning method      GridPruning ... 3 (G Style)
Weight generation scheme         WeightScheme... Becke
Basis function cutoff            BFCut       ...    1.0000e-11
Integration weight cutoff        WCut        ...    1.0000e-14
Grids for H and He will be reduced by one unit

# of grid points (after initial pruning)     ...  21376 (   0.0 sec)
# of grid points (after weights+screening)   ...  19978 (   0.1 sec)
nearest neighbour list constructed           ...    0.0 sec
Grid point re-assignment to atoms done       ...    0.0 sec
Grid point division into batches done        ...    0.0 sec
Reduced shell lists constructed in    1.1 sec

Total number of grid points                  ...    19978
Total number of batches                      ...      322
Average number of points per batch           ...       62
Average number of grid points per atom       ...     1175
Average number of shells per batch           ...    78.98 (60.29%)
Average number of basis functions per batch  ...   198.78 (60.79%)
Average number of large shells per batch     ...    60.62 (76.74%)
Average number of large basis fcns per batch ...   152.21 (76.57%)
Average number of aux-shells per batch       ...    78.98 (28.93%)
Average number of aux functions per batch    ...   198.78 (  inf%)
Maximum spatial batch extension              ...  18.69, 19.36, 21.37 au
Average spatial batch extension              ...   3.98,  3.78,  4.10 au

Time for grid setup =    1.235 sec

------------------------------
INITIAL GUESS: MODEL POTENTIAL
------------------------------
Loading Hartree-Fock densities                     ... done
Calculating cut-offs                               ... done
Setting up the integral package                    ... done
Initializing the effective Hamiltonian             ... done
Starting the Coulomb interaction                   ... done (   0.5 sec)
Reading the grid                                   ... done
Mapping shells                                     ... done
Starting the XC term evaluation                    ... done (   0.5 sec)
Transforming the Hamiltonian                       ... done (   0.0 sec)
Diagonalizing the Hamiltonian                      ... done (   0.0 sec)
Back transforming the eigenvectors                 ... done (   0.0 sec)
Now organizing SCF variables                       ... done
                      ------------------
                      INITIAL GUESS DONE (   2.4 sec)
                      ------------------
--------------
SCF ITERATIONS
--------------
ITER       Energy         Delta-E        Max-DP      RMS-DP      [F,P]     Damp
  0   -419.1122012605   0.000000000000 0.25974546  0.00231378  0.2895793 0.7000
  1   -418.9361151705   0.176086090087 0.40274051  0.00285076  0.2488653 0.7000
                               ***Turning on DIIS***
  2   -418.9772310056  -0.041115835156 0.28031595  0.00200546  0.1869182 0.7000
  3   -420.0372864569  -1.060055451318 0.04619283  0.00064627  0.1331083 0.7000
  4   -419.4467980989   0.590488358006 0.30856236  0.00236609  0.0858270 0.0000
  5   -419.5187763485  -0.071978249588 0.05284538  0.00052046  0.0361928 0.0000
  6   -419.4210685272   0.097707821291 0.02476127  0.00023446  0.0116303 0.0000
  7   -419.4420748856  -0.021006358383 0.00707369  0.00010369  0.0070133 0.0000
  8   -419.4441145595  -0.002039673879 0.00250292  0.00007290  0.0052156 0.0000
                      *** Initiating the SOSCF procedure ***
                           *** Shutting down DIIS ***
                      *** Re-Reading the Fockian *** 
                      *** Removing any level shift *** 
ITER      Energy       Delta-E        Grad      Rot      Max-DP    RMS-DP
  9   -419.50464654  -0.0605319767  0.000663  0.000663  0.003745  0.000034
 10   -419.50900068  -0.0043541444  0.000269  0.000418  0.001040  0.000010
 11   -419.50900186  -0.0000011790  0.000125  0.000517  0.001656  0.000012
 12   -419.50900244  -0.0000005774  0.000016  0.000022  0.000247  0.000003
 13   -419.50900246  -0.0000000230  0.000012  0.000019  0.000269  0.000002
 14   -419.50900247  -0.0000000055  0.000003  0.000007  0.000047  0.000000
                  ***Gradient check signals convergence***
              ***Rediagonalizing the Fockian in SOSCF/NRSCF***

               *****************************************************
               *                     SUCCESS                       *
               *           SCF CONVERGED AFTER  15 CYCLES          *
               *****************************************************


----------------
TOTAL SCF ENERGY
----------------

Total Energy       :         -419.50900247 Eh          -11415.42031 eV

Components:
Nuclear Repulsion  :          388.25490887 Eh           10564.95318 eV
Electronic Energy  :         -807.76391134 Eh          -21980.37349 eV

One Electron Energy:        -1340.37724823 Eh          -36473.51920 eV
Two Electron Energy:          532.61333690 Eh           14493.14571 eV

Virial components:
Potential Energy   :         -838.46446594 Eh          -22815.77805 eV
Kinetic Energy     :          418.95546347 Eh           11400.35774 eV
Virial Ratio       :            2.00132124


---------------
SCF CONVERGENCE
---------------

  Last Energy change         ...   -8.9983e-10  Tolerance :   1.0000e-08
  Last MAX-Density change    ...    2.5187e-05  Tolerance :   1.0000e-07
  Last RMS-Density change    ...    2.2734e-07  Tolerance :   5.0000e-09
  Last Orbital Gradient      ...    1.5914e-06  Tolerance :   1.0000e-05
  Last Orbital Rotation      ...    5.6027e-06  Tolerance :   1.0000e-05

             **** THE GBW FILE WAS UPDATED (dsgdb9nsd_064950.gbw) ****
             **** DENSITY FILE WAS UPDATED (dsgdb9nsd_064950.scfp.tmp) ****
             **** ENERGY FILE WAS UPDATED (dsgdb9nsd_064950.en.tmp) ****
----------------
ORBITAL ENERGIES
----------------

  NO   OCC          E(Eh)            E(eV) 
   0   2.0000     -20.576181      -559.9063 
   1   2.0000     -20.568026      -559.6845 
   2   2.0000     -11.345055      -308.7146 
   3   2.0000     -11.320264      -308.0400 
   4   2.0000     -11.275947      -306.8341 
   5   2.0000     -11.245805      -306.0139 
   6   2.0000     -11.243385      -305.9480 
   7   2.0000     -11.242358      -305.9201 
   8   2.0000     -11.241320      -305.8919 
   9   2.0000      -1.408606       -38.3301 
  10   2.0000      -1.387797       -37.7639 
  11   2.0000      -1.150921       -31.3182 
  12   2.0000      -1.090808       -29.6824 
  13   2.0000      -1.002541       -27.2805 
  14   2.0000      -0.863384       -23.4939 
  15   2.0000      -0.844955       -22.9924 
  16   2.0000      -0.817208       -22.2374 
  17   2.0000      -0.750328       -20.4175 
  18   2.0000      -0.700363       -19.0578 
  19   2.0000      -0.673913       -18.3381 
  20   2.0000      -0.649952       -17.6861 
  21   2.0000      -0.643827       -17.5194 
  22   2.0000      -0.635331       -17.2882 
  23   2.0000      -0.603465       -16.4211 
  24   2.0000      -0.585133       -15.9223 
  25   2.0000      -0.539618       -14.6838 
  26   2.0000      -0.533891       -14.5279 
  27   2.0000      -0.525199       -14.2914 
  28   2.0000      -0.470815       -12.8115 
  29   2.0000      -0.445978       -12.1357 
  30   2.0000      -0.436582       -11.8800 
  31   2.0000      -0.393220       -10.7001 
  32   2.0000      -0.363101        -9.8805 
  33   0.0000       0.117751         3.2042 
  34   0.0000       0.136571         3.7163 
  35   0.0000       0.153794         4.1850 
  36   0.0000       0.157863         4.2957 
  37   0.0000       0.165807         4.5118 
  38   0.0000       0.175180         4.7669 
  39   0.0000       0.182862         4.9759 
  40   0.0000       0.188294         5.1237 
  41   0.0000       0.196399         5.3443 
  42   0.0000       0.220943         6.0122 
  43   0.0000       0.226294         6.1578 
  44   0.0000       0.238179         6.4812 
  45   0.0000       0.243006         6.6125 
  46   0.0000       0.264914         7.2087 
  47   0.0000       0.272819         7.4238 
  48   0.0000       0.291734         7.9385 
  49   0.0000       0.299254         8.1431 
  50   0.0000       0.315995         8.5987 
  51   0.0000       0.325926         8.8689 
  52   0.0000       0.345144         9.3918 
  53   0.0000       0.363164         9.8822 
  54   0.0000       0.367821        10.0089 
  55   0.0000       0.378081        10.2881 
  56   0.0000       0.394380        10.7316 
  57   0.0000       0.413385        11.2488 
  58   0.0000       0.426574        11.6077 
  59   0.0000       0.443368        12.0647 
  60   0.0000       0.450946        12.2709 
  61   0.0000       0.474017        12.8987 
  62   0.0000       0.492582        13.4038 
  63   0.0000       0.498510        13.5652 
  64   0.0000       0.516855        14.0643 
  65   0.0000       0.521624        14.1941 
  66   0.0000       0.528356        14.3773 
  67   0.0000       0.543678        14.7942 
  68   0.0000       0.550102        14.9690 
  69   0.0000       0.564386        15.3577 
  70   0.0000       0.571697        15.5567 
  71   0.0000       0.588487        16.0136 
  72   0.0000       0.590947        16.0805 
  73   0.0000       0.597199        16.2506 
  74   0.0000       0.620230        16.8773 
  75   0.0000       0.625036        17.0081 
  76   0.0000       0.634356        17.2617 
  77   0.0000       0.644209        17.5298 
  78   0.0000       0.655381        17.8338 
  79   0.0000       0.672524        18.3003 
  80   0.0000       0.678823        18.4717 
  81   0.0000       0.682300        18.5663 
  82   0.0000       0.683450        18.5976 
  83   0.0000       0.708130        19.2692 
  84   0.0000       0.711073        19.3493 
  85   0.0000       0.718186        19.5428 
  86   0.0000       0.732118        19.9219 
  87   0.0000       0.762743        20.7553 
  88   0.0000       0.786163        21.3926 
  89   0.0000       0.795622        21.6500 
  90   0.0000       0.811398        22.0792 
  91   0.0000       0.824901        22.4467 
  92   0.0000       0.846281        23.0285 
  93   0.0000       0.876903        23.8618 
  94   0.0000       0.896483        24.3946 
  95   0.0000       0.914470        24.8840 
  96   0.0000       0.938790        25.5458 
  97   0.0000       0.973932        26.5020 
  98   0.0000       1.013647        27.5827 
  99   0.0000       1.027863        27.9696 
 100   0.0000       1.043553        28.3965 
 101   0.0000       1.051911        28.6239 
 102   0.0000       1.084466        29.5098 
 103   0.0000       1.090408        29.6715 
 104   0.0000       1.107638        30.1404 
 105   0.0000       1.122639        30.5486 
 106   0.0000       1.135332        30.8940 
 107   0.0000       1.172425        31.9033 
 108   0.0000       1.192150        32.4400 
 109   0.0000       1.211835        32.9757 
 110   0.0000       1.222492        33.2657 
 111   0.0000       1.228634        33.4328 
 112   0.0000       1.248953        33.9857 
 113   0.0000       1.268536        34.5186 
 114   0.0000       1.278334        34.7852 
 115   0.0000       1.302514        35.4432 
 116   0.0000       1.316842        35.8331 
 117   0.0000       1.326287        36.0901 
 118   0.0000       1.364743        37.1365 
 119   0.0000       1.388227        37.7756 
 120   0.0000       1.395679        37.9784 
 121   0.0000       1.403182        38.1825 
 122   0.0000       1.440131        39.1880 
 123   0.0000       1.455953        39.6185 
 124   0.0000       1.488961        40.5167 
 125   0.0000       1.511772        41.1374 
 126   0.0000       1.533665        41.7331 
 127   0.0000       1.614747        43.9395 
 128   0.0000       1.634449        44.4756 
 129   0.0000       1.659452        45.1560 
 130   0.0000       1.676683        45.6249 
 131   0.0000       1.706393        46.4333 
 132   0.0000       1.717205        46.7275 
 133   0.0000       1.722389        46.8686 
 134   0.0000       1.743461        47.4420 
 135   0.0000       1.768272        48.1171 
 136   0.0000       1.779827        48.4315 
 137   0.0000       1.786238        48.6060 
 138   0.0000       1.796321        48.8804 
 139   0.0000       1.842740        50.1435 
 140   0.0000       1.861907        50.6651 
 141   0.0000       1.878917        51.1279 
 142   0.0000       1.889820        51.4246 
 143   0.0000       1.895457        51.5780 
 144   0.0000       1.903014        51.7836 
 145   0.0000       1.938950        52.7615 
 146   0.0000       1.949910        53.0598 
 147   0.0000       1.960345        53.3437 
 148   0.0000       1.993626        54.2493 
 149   0.0000       2.005663        54.5769 
 150   0.0000       2.031993        55.2933 
 151   0.0000       2.041661        55.5564 
 152   0.0000       2.086664        56.7810 
 153   0.0000       2.116015        57.5797 
 154   0.0000       2.130612        57.9769 
 155   0.0000       2.137467        58.1634 
 156   0.0000       2.141462        58.2722 
 157   0.0000       2.162745        58.8513 
 158   0.0000       2.182246        59.3819 
 159   0.0000       2.194966        59.7281 
 160   0.0000       2.221702        60.4556 
 161   0.0000       2.230171        60.6860 
 162   0.0000       2.243853        61.0583 
 163   0.0000       2.295569        62.4656 
 164   0.0000       2.298797        62.5534 
 165   0.0000       2.307520        62.7908 
 166   0.0000       2.402871        65.3854 
 167   0.0000       2.433372        66.2154 
 168   0.0000       2.451694        66.7140 
 169   0.0000       2.473174        67.2985 
 170   0.0000       2.485660        67.6382 
 171   0.0000       2.512423        68.3665 
 172   0.0000       2.534310        68.9621 
 173   0.0000       2.543696        69.2175 
 174   0.0000       2.555861        69.5485 
 175   0.0000       2.565585        69.8131 
 176   0.0000       2.598424        70.7067 
 177   0.0000       2.647168        72.0331 
 178   0.0000       2.678845        72.8951 
 179   0.0000       2.707299        73.6693 
 180   0.0000       2.710735        73.7629 
 181   0.0000       2.717271        73.9407 
 182   0.0000       2.752508        74.8996 
 183   0.0000       2.768642        75.3386 
 184   0.0000       2.779986        75.6473 
 185   0.0000       2.805209        76.3336 
 186   0.0000       2.817261        76.6616 
 187   0.0000       2.824462        76.8575 
 188   0.0000       2.843114        77.3651 
 189   0.0000       2.857336        77.7521 
 190   0.0000       2.876168        78.2645 
 191   0.0000       2.884065        78.4794 
 192   0.0000       2.898065        78.8604 
 193   0.0000       2.918847        79.4259 
 194   0.0000       2.936145        79.8966 
 195   0.0000       2.940456        80.0139 
 196   0.0000       2.962797        80.6218 
 197   0.0000       2.970875        80.8416 
 198   0.0000       2.996102        81.5281 
 199   0.0000       3.034337        82.5685 
 200   0.0000       3.060052        83.2682 
 201   0.0000       3.068021        83.4851 
 202   0.0000       3.096181        84.2514 
 203   0.0000       3.122471        84.9668 
 204   0.0000       3.140368        85.4538 
 205   0.0000       3.155117        85.8551 
 206   0.0000       3.180610        86.5488 
 207   0.0000       3.201536        87.1182 
 208   0.0000       3.219668        87.6116 
 209   0.0000       3.228948        87.8641 
 210   0.0000       3.234746        88.0219 
 211   0.0000       3.247403        88.3663 
 212   0.0000       3.264268        88.8252 
 213   0.0000       3.284827        89.3847 
 214   0.0000       3.290934        89.5509 
 215   0.0000       3.303806        89.9011 
 216   0.0000       3.321726        90.3888 
 217   0.0000       3.329765        90.6075 
 218   0.0000       3.338648        90.8492 
 219   0.0000       3.352383        91.2230 
 220   0.0000       3.362197        91.4900 
 221   0.0000       3.373465        91.7967 
 222   0.0000       3.392860        92.3244 
 223   0.0000       3.409040        92.7647 
 224   0.0000       3.430609        93.3516 
 225   0.0000       3.446262        93.7776 
 226   0.0000       3.454378        93.9984 
 227   0.0000       3.473334        94.5142 
 228   0.0000       3.491865        95.0185 
 229   0.0000       3.500738        95.2599 
 230   0.0000       3.512661        95.5844 
 231   0.0000       3.522448        95.8507 
 232   0.0000       3.558466        96.8308 
 233   0.0000       3.574961        97.2796 
 234   0.0000       3.592015        97.7437 
 235   0.0000       3.605220        98.1030 
 236   0.0000       3.647861        99.2633 
 237   0.0000       3.654113        99.4335 
 238   0.0000       3.679822       100.1330 
 239   0.0000       3.702695       100.7555 
 240   0.0000       3.735702       101.6536 
 241   0.0000       3.758896       102.2848 
 242   0.0000       3.766988       102.5049 
 243   0.0000       3.803068       103.4867 
 244   0.0000       3.819089       103.9227 
 245   0.0000       3.851637       104.8084 
 246   0.0000       3.876246       105.4780 
 247   0.0000       3.914748       106.5257 
 248   0.0000       3.930730       106.9606 
 249   0.0000       3.959374       107.7400 
 250   0.0000       3.966174       107.9251 
 251   0.0000       3.998990       108.8180 
 252   0.0000       4.034089       109.7731 
 253   0.0000       4.067048       110.6700 
 254   0.0000       4.085273       111.1659 
 255   0.0000       4.116878       112.0259 
 256   0.0000       4.140977       112.6817 
 257   0.0000       4.157114       113.1208 
 258   0.0000       4.176848       113.6578 
 259   0.0000       4.225313       114.9766 
 260   0.0000       4.266072       116.0857 
 261   0.0000       4.290126       116.7403 
 262   0.0000       4.311364       117.3182 
 263   0.0000       4.326392       117.7271 
 264   0.0000       4.391888       119.5093 
 265   0.0000       4.419856       120.2704 
 266   0.0000       4.445736       120.9746 
 267   0.0000       4.464176       121.4764 
 268   0.0000       4.481192       121.9394 
 269   0.0000       4.497576       122.3853 
 270   0.0000       4.556541       123.9898 
 271   0.0000       4.558640       124.0469 
 272   0.0000       4.590700       124.9193 
 273   0.0000       4.640803       126.2827 
 274   0.0000       4.686805       127.5345 
 275   0.0000       4.736204       128.8787 
 276   0.0000       4.776443       129.9736 
 277   0.0000       4.817342       131.0865 
 278   0.0000       4.860374       132.2575 
 279   0.0000       4.897071       133.2561 
 280   0.0000       4.950465       134.7090 
 281   0.0000       4.967442       135.1710 
 282   0.0000       5.030420       136.8847 
 283   0.0000       5.129254       139.5741 
 284   0.0000       5.181226       140.9883 
 285   0.0000       5.192138       141.2853 
 286   0.0000       5.209795       141.7657 
 287   0.0000       5.247294       142.7861 
 288   0.0000       5.313571       144.5896 
 289   0.0000       5.453716       148.4032 
 290   0.0000       5.557212       151.2194 
 291   0.0000       5.583807       151.9431 
 292   0.0000       5.630563       153.2154 
 293   0.0000       5.635139       153.3399 
 294   0.0000       5.747181       156.3888 
 295   0.0000       5.856354       159.3595 
 296   0.0000       5.877473       159.9342 
 297   0.0000       5.968587       162.4135 
 298   0.0000       5.995887       163.1564 
 299   0.0000       6.030490       164.0980 
 300   0.0000       6.124388       166.6531 
 301   0.0000       6.266648       170.5242 
 302   0.0000       6.410125       174.4284 
 303   0.0000       6.516537       177.3240 
 304   0.0000       6.586237       179.2206 
 305   0.0000       6.809970       185.3087 
 306   0.0000       6.836482       186.0301 
 307   0.0000       6.863884       186.7758 
 308   0.0000       6.869623       186.9320 
 309   0.0000       6.960018       189.3917 
 310   0.0000       7.024303       191.1410 
 311   0.0000       7.240794       197.0320 
 312   0.0000       7.294512       198.4938 
 313   0.0000       7.405716       201.5198 
 314   0.0000       7.430931       202.2059 
 315   0.0000       7.523776       204.7324 
 316   0.0000       7.580072       206.2642 
 317   0.0000       7.697101       209.4488 
 318   0.0000      23.513694       639.8401 
 319   0.0000      23.532124       640.3417 
 320   0.0000      23.585841       641.8034 
 321   0.0000      23.788441       647.3164 
 322   0.0000      23.986739       652.7124 
 323   0.0000      24.598803       669.3675 
 324   0.0000      24.980257       679.7474 
 325   0.0000      45.319957      1233.2187 
 326   0.0000      45.477522      1237.5063 

                    ********************************
                    * MULLIKEN POPULATION ANALYSIS *
                    ********************************

-----------------------
MULLIKEN ATOMIC CHARGES
-----------------------
   0 O :   -0.531304
   1 C :    0.168600
   2 C :   -0.234385
   3 C :   -0.211603
   4 C :   -0.036748
   5 C :   -0.007784
   6 C :   -0.212227
   7 C :    0.237932
   8 O :   -0.392712
   9 H :    0.334668
  10 H :    0.122737
  11 H :    0.120917
  12 H :    0.126040
  13 H :    0.126014
  14 H :    0.150093
  15 H :    0.143404
  16 H :    0.096358
Sum of atomic charges:   -0.0000000

--------------------------------
MULLIKEN REDUCED ORBITAL CHARGES
--------------------------------
  0 O s       :     3.795376  s :     3.795376
      pz      :     1.847253  p :     4.698817
      px      :     1.554834
      py      :     1.296730
      dz2     :     0.004783  d :     0.035226
      dxz     :     0.003224
      dyz     :     0.006528
      dx2y2   :     0.007598
      dxy     :     0.013093
      f0      :     0.000272  f :     0.001886
      f+1     :     0.000225
      f-1     :     0.000337
      f+2     :     0.000215
      f-2     :     0.000176
      f+3     :     0.000167
      f-3     :     0.000494
  1 C s       :     3.140371  s :     3.140371
      pz      :     0.840030  p :     2.481123
      px      :     0.933230
      py      :     0.707862
      dz2     :     0.042641  d :     0.193151
      dxz     :     0.023680
      dyz     :     0.037901
      dx2y2   :     0.030781
      dxy     :     0.058147
      f0      :     0.002182  f :     0.016756
      f+1     :     0.002139
      f-1     :     0.003276
      f+2     :     0.002311
      f-2     :     0.002102
      f+3     :     0.002674
      f-3     :     0.002072
  2 C s       :     3.221239  s :     3.221239
      pz      :     0.838437  p :     2.927939
      px      :     1.040015
      py      :     1.049486
      dz2     :     0.015190  d :     0.077123
      dxz     :     0.021071
      dyz     :     0.016948
      dx2y2   :     0.008573
      dxy     :     0.015341
      f0      :     0.001983  f :     0.008084
      f+1     :     0.001726
      f-1     :     0.000976
      f+2     :     0.000945
      f-2     :     0.001522
      f+3     :     0.000642
      f-3     :     0.000289
  3 C s       :     3.216522  s :     3.216522
      pz      :     1.018757  p :     2.907203
      px      :     0.899395
      py      :     0.989051
      dz2     :     0.019576  d :     0.079614
      dxz     :     0.018732
      dyz     :     0.010649
      dx2y2   :     0.016352
      dxy     :     0.014306
      f0      :     0.000958  f :     0.008264
      f+1     :     0.001527
      f-1     :     0.000942
      f+2     :     0.000886
      f-2     :     0.001133
      f+3     :     0.000596
      f-3     :     0.002223
  4 C s       :     3.454412  s :     3.454412
      pz      :     0.875763  p :     2.486226
      px      :     0.657594
      py      :     0.952870
      dz2     :     0.017640  d :     0.084291
      dxz     :     0.018936
      dyz     :     0.011448
      dx2y2   :     0.025933
      dxy     :     0.010335
      f0      :     0.000629  f :     0.011819
      f+1     :     0.002781
      f-1     :     0.000919
      f+2     :     0.001650
      f-2     :     0.001819
      f+3     :     0.002609
      f-3     :     0.001413
  5 C s       :     3.393777  s :     3.393777
      pz      :     0.927210  p :     2.541317
      px      :     0.700821
      py      :     0.913285
      dz2     :     0.011476  d :     0.061248
      dxz     :     0.015221
      dyz     :     0.007965
      dx2y2   :     0.015065
      dxy     :     0.011521
      f0      :     0.000578  f :     0.011442
      f+1     :     0.002658
      f-1     :     0.000811
      f+2     :     0.001822
      f-2     :     0.001797
      f+3     :     0.002367
      f-3     :     0.001408
  6 C s       :     3.224872  s :     3.224872
      pz      :     0.981335  p :     2.887996
      px      :     0.934402
      py      :     0.972259
      dz2     :     0.009544  d :     0.093766
      dxz     :     0.022564
      dyz     :     0.024870
      dx2y2   :     0.015099
      dxy     :     0.021689
      f0      :     0.000377  f :     0.005593
      f+1     :     0.000447
      f-1     :     0.000471
      f+2     :     0.001046
      f-2     :     0.002055
      f+3     :     0.000592
      f-3     :     0.000606
  7 C s       :     3.191518  s :     3.191518
      pz      :     0.757922  p :     2.366450
      px      :     0.837130
      py      :     0.771398
      dz2     :     0.011749  d :     0.187744
      dxz     :     0.023365
      dyz     :     0.052826
      dx2y2   :     0.061459
      dxy     :     0.038344
      f0      :     0.001956  f :     0.016355
      f+1     :     0.000825
      f-1     :     0.001656
      f+2     :     0.001899
      f-2     :     0.002933
      f+3     :     0.002413
      f-3     :     0.004673
  8 O s       :     3.837766  s :     3.837766
      pz      :     1.542793  p :     4.515879
      px      :     1.571687
      py      :     1.401399
      dz2     :     0.003631  d :     0.036884
      dxz     :     0.003226
      dyz     :     0.008680
      dx2y2   :     0.011147
      dxy     :     0.010199
      f0      :     0.000260  f :     0.002183
      f+1     :     0.000097
      f-1     :     0.000244
      f+2     :     0.000125
      f-2     :     0.000319
      f+3     :     0.000519
      f-3     :     0.000620
  9 H s       :     0.620008  s :     0.620008
      pz      :     0.014254  p :     0.045323
      px      :     0.016739
      py      :     0.014330
 10 H s       :     0.853856  s :     0.853856
      pz      :     0.006379  p :     0.023407
      px      :     0.008588
      py      :     0.008440
 11 H s       :     0.855757  s :     0.855757
      pz      :     0.007028  p :     0.023326
      px      :     0.005105
      py      :     0.011192
 12 H s       :     0.850561  s :     0.850561
      pz      :     0.004457  p :     0.023400
      px      :     0.013447
      py      :     0.005496
 13 H s       :     0.850670  s :     0.850670
      pz      :     0.004740  p :     0.023316
      px      :     0.003095
      py      :     0.015481
 14 H s       :     0.827467  s :     0.827467
      pz      :     0.007477  p :     0.022440
      px      :     0.006498
      py      :     0.008465
 15 H s       :     0.834018  s :     0.834018
      pz      :     0.007935  p :     0.022578
      px      :     0.009732
      py      :     0.004911
 16 H s       :     0.882640  s :     0.882640
      pz      :     0.005625  p :     0.021002
      px      :     0.012907
      py      :     0.002471


                     *******************************
                     * LOEWDIN POPULATION ANALYSIS *
                     *******************************

----------------------
LOEWDIN ATOMIC CHARGES
----------------------
   0 O :    0.002483
   1 C :   -0.333969
   2 C :   -0.170140
   3 C :   -0.161398
   4 C :   -0.035417
   5 C :   -0.078018
   6 C :   -0.212926
   7 C :   -0.218843
   8 O :    0.069766
   9 H :    0.184186
  10 H :    0.127687
  11 H :    0.128766
  12 H :    0.133568
  13 H :    0.128916
  14 H :    0.162697
  15 H :    0.156020
  16 H :    0.116620

-------------------------------
LOEWDIN REDUCED ORBITAL CHARGES
-------------------------------
  0 O s       :     3.348647  s :     3.348647
      pz      :     1.736831  p :     4.574830
      px      :     1.532166
      py      :     1.305833
      dz2     :     0.010561  d :     0.069674
      dxz     :     0.003483
      dyz     :     0.013561
      dx2y2   :     0.013836
      dxy     :     0.028233
      f0      :     0.000296  f :     0.004366
      f+1     :     0.000312
      f-1     :     0.000767
      f+2     :     0.000521
      f-2     :     0.000543
      f+3     :     0.000564
      f-3     :     0.001362
  1 C s       :     2.666997  s :     2.666997
      pz      :     0.954733  p :     2.786500
      px      :     0.989214
      py      :     0.842553
      dz2     :     0.155369  d :     0.773338
      dxz     :     0.129769
      dyz     :     0.166518
      dx2y2   :     0.145710
      dxy     :     0.175973
      f0      :     0.011461  f :     0.107134
      f+1     :     0.013553
      f-1     :     0.020805
      f+2     :     0.014736
      f-2     :     0.013003
      f+3     :     0.020320
      f-3     :     0.013257
  2 C s       :     2.775589  s :     2.775589
      pz      :     0.946114  p :     3.006062
      px      :     1.029196
      py      :     1.030752
      dz2     :     0.081200  d :     0.347461
      dxz     :     0.083948
      dyz     :     0.091999
      dx2y2   :     0.037485
      dxy     :     0.052829
      f0      :     0.011471  f :     0.041029
      f+1     :     0.010301
      f-1     :     0.005208
      f+2     :     0.004449
      f-2     :     0.004246
      f+3     :     0.004036
      f-3     :     0.001317
  3 C s       :     2.771377  s :     2.771377
      pz      :     1.020258  p :     2.996801
      px      :     0.969119
      py      :     1.007424
      dz2     :     0.077621  d :     0.351207
      dxz     :     0.061728
      dyz     :     0.042198
      dx2y2   :     0.095203
      dxy     :     0.074458
      f0      :     0.004073  f :     0.042013
      f+1     :     0.008303
      f-1     :     0.005008
      f+2     :     0.005344
      f-2     :     0.007285
      f+3     :     0.003467
      f-3     :     0.008533
  4 C s       :     2.784362  s :     2.784362
      pz      :     0.915667  p :     2.867318
      px      :     1.013612
      py      :     0.938039
      dz2     :     0.071765  d :     0.338537
      dxz     :     0.065439
      dyz     :     0.042610
      dx2y2   :     0.092354
      dxy     :     0.066369
      f0      :     0.004185  f :     0.045199
      f+1     :     0.007895
      f-1     :     0.002600
      f+2     :     0.006159
      f-2     :     0.009283
      f+3     :     0.007409
      f-3     :     0.007668
  5 C s       :     2.789489  s :     2.789489
      pz      :     0.945456  p :     2.905911
      px      :     1.049299
      py      :     0.911156
      dz2     :     0.058269  d :     0.337863
      dxz     :     0.077288
      dyz     :     0.042550
      dx2y2   :     0.084186
      dxy     :     0.075572
      f0      :     0.003844  f :     0.044754
      f+1     :     0.007771
      f-1     :     0.002354
      f+2     :     0.007220
      f-2     :     0.008858
      f+3     :     0.007007
      f-3     :     0.007701
  6 C s       :     2.768886  s :     2.768886
      pz      :     1.011938  p :     3.030868
      px      :     1.010243
      py      :     1.008687
      dz2     :     0.038023  d :     0.376255
      dxz     :     0.097406
      dyz     :     0.096001
      dx2y2   :     0.063358
      dxy     :     0.081466
      f0      :     0.004160  f :     0.036917
      f+1     :     0.004859
      f-1     :     0.004658
      f+2     :     0.004672
      f-2     :     0.006728
      f+3     :     0.006334
      f-3     :     0.005506
  7 C s       :     2.833093  s :     2.833093
      pz      :     0.783544  p :     2.627456
      px      :     0.897697
      py      :     0.946215
      dz2     :     0.063128  d :     0.660607
      dxz     :     0.066245
      dyz     :     0.164812
      dx2y2   :     0.197784
      dxy     :     0.168637
      f0      :     0.010940  f :     0.097686
      f+1     :     0.006063
      f-1     :     0.009332
      f+2     :     0.010275
      f-2     :     0.015759
      f+3     :     0.015023
      f-3     :     0.030294
  8 O s       :     3.409993  s :     3.409993
      pz      :     1.430656  p :     4.442651
      px      :     1.520148
      py      :     1.491847
      dz2     :     0.008418  d :     0.071646
      dxz     :     0.004150
      dyz     :     0.014402
      dx2y2   :     0.020690
      dxy     :     0.023985
      f0      :     0.000597  f :     0.005944
      f+1     :     0.000329
      f-1     :     0.000747
      f+2     :     0.000374
      f-2     :     0.000653
      f+3     :     0.001640
      f-3     :     0.001603
  9 H s       :     0.659250  s :     0.659250
      pz      :     0.043946  p :     0.156564
      px      :     0.070042
      py      :     0.042576
 10 H s       :     0.809815  s :     0.809815
      pz      :     0.015991  p :     0.062498
      px      :     0.023006
      py      :     0.023502
 11 H s       :     0.808956  s :     0.808956
      pz      :     0.017137  p :     0.062278
      px      :     0.016203
      py      :     0.028938
 12 H s       :     0.804135  s :     0.804135
      pz      :     0.014165  p :     0.062297
      px      :     0.030999
      py      :     0.017134
 13 H s       :     0.808904  s :     0.808904
      pz      :     0.014732  p :     0.062180
      px      :     0.010389
      py      :     0.037058
 14 H s       :     0.779293  s :     0.779293
      pz      :     0.019983  p :     0.058011
      px      :     0.015972
      py      :     0.022056
 15 H s       :     0.785334  s :     0.785334
      pz      :     0.021201  p :     0.058646
      px      :     0.022967
      py      :     0.014477
 16 H s       :     0.828654  s :     0.828654
      pz      :     0.014952  p :     0.054726
      px      :     0.032181
      py      :     0.007593


                      *****************************
                      * MAYER POPULATION ANALYSIS *
                      *****************************

  NA   - Mulliken gross atomic population
  ZA   - Total nuclear charge
  QA   - Mulliken gross atomic charge
  VA   - Mayer's total valence
  BVA  - Mayer's bonded valence
  FA   - Mayer's free valence

  ATOM       NA         ZA         QA         VA         BVA        FA
  0 O      8.5313     8.0000    -0.5313     1.8536     1.8536    -0.0000
  1 C      5.8314     6.0000     0.1686     3.6971     3.6971     0.0000
  2 C      6.2344     6.0000    -0.2344     3.9083     3.9083     0.0000
  3 C      6.2116     6.0000    -0.2116     3.8606     3.8606     0.0000
  4 C      6.0367     6.0000    -0.0367     3.9590     3.9590    -0.0000
  5 C      6.0078     6.0000    -0.0078     3.5292     3.5292     0.0000
  6 C      6.2122     6.0000    -0.2122     3.6647     3.6647     0.0000
  7 C      5.7621     6.0000     0.2379     3.9598     3.9598    -0.0000
  8 O      8.3927     8.0000    -0.3927     2.0261     2.0261    -0.0000
  9 H      0.6653     1.0000     0.3347     0.9015     0.9015     0.0000
 10 H      0.8773     1.0000     0.1227     0.9741     0.9741    -0.0000
 11 H      0.8791     1.0000     0.1209     0.9797     0.9797     0.0000
 12 H      0.8740     1.0000     0.1260     0.9842     0.9842     0.0000
 13 H      0.8740     1.0000     0.1260     0.9755     0.9755    -0.0000
 14 H      0.8499     1.0000     0.1501     0.9649     0.9649     0.0000
 15 H      0.8566     1.0000     0.1434     0.9789     0.9789    -0.0000
 16 H      0.9036     1.0000     0.0964     0.9679     0.9679    -0.0000

  Mayer bond orders larger than 0.1
B(  0-O ,  1-C ) :   0.9146 B(  0-O ,  9-H ) :   0.8817 B(  1-C ,  2-C ) :   0.9532 
B(  1-C ,  3-C ) :   0.9203 B(  1-C ,  4-C ) :   1.1373 B(  1-C ,  5-C ) :  -0.1917 
B(  2-C ,  3-C ) :   1.0003 B(  2-C , 10-H ) :   0.9681 B(  2-C , 11-H ) :   0.9733 
B(  3-C , 12-H ) :   0.9738 B(  3-C , 13-H ) :   0.9765 B(  4-C ,  5-C ) :   2.8236 
B(  4-C ,  6-C ) :  -0.1048 B(  5-C ,  6-C ) :   0.9420 B(  6-C ,  7-C ) :   0.9629 
B(  6-C , 14-H ) :   0.9987 B(  6-C , 15-H ) :   0.9611 B(  7-C ,  8-O ) :   2.0229 
B(  7-C , 16-H ) :   0.9842 

-------
TIMINGS
-------

Total SCF time: 0 days 0 hours 2 min 6 sec 

Total time                  ....     126.497 sec
Sum of individual times     ....     130.048 sec  (102.8%)

Fock matrix formation       ....     125.116 sec  ( 98.9%)
Diagonalization             ....       0.637 sec  (  0.5%)
Density matrix formation    ....       0.042 sec  (  0.0%)
Population analysis         ....       0.147 sec  (  0.1%)
Initial guess               ....       2.445 sec  (  1.9%)
Orbital Transformation      ....       0.000 sec  (  0.0%)
Orbital Orthonormalization  ....       0.000 sec  (  0.0%)
DIIS solution               ....       0.179 sec  (  0.1%)
SOSCF solution              ....       0.247 sec  (  0.2%)

   <<< Auxbasis replaced with dsgdb9nsd_064950.AUXC.tmp (Dim=804) >>> 


------------------------------------------------------------------------------
                              ORCA MP2 CALCULATION
------------------------------------------------------------------------------

Freezing NCore=18 chemical core electrons

   <<< Use J-auxbasis for calculation of Separable RI-J derivative contributions dsgdb9nsd_064950.AUXJ.tmp (Dim=823) >>> 


---------------------
RI-MP2 ENERGY+DENSITY
---------------------
Dimension of the basis                    ...  327
Memory devoted to MP2                     ... 2000 MB   
Data format for buffers                   ... DOUBLE
Compression type for matrix containers    ... UNCOMPRESSED
Overall scaling of the MP2 energy         ...   1.000e+00 Eh
Calculating two index integrals           ... done (    0.016 sec)
Cholesky decomposition of V**-1           ... done (    0.104 sec)

-----------------
RI-TRANSFORMATION (AUX index driven)
-----------------

Dimension of the orbital-basis         ... 327
Dimension of the aux-basis             ... 804
Transformation of internal MOs         ...    0-  32
Transformation of internal/external MOs...    0-  32 to   33- 326
Number Format for Storage              ... Double (8 Byte)
Integral mode                          ... Direct

First Phase: integral generation and transformation of MO indices
  Aux angular momentum 0               ... done (    0.641 sec)
  Aux angular momentum 1               ... done (    0.923 sec)
  Aux angular momentum 2               ... done (    1.005 sec)
  Aux angular momentum 3               ... done (    0.801 sec)
  Aux angular momentum 4               ... done (    0.361 sec)
Closing buffer VIJ ( 0.00 GB; CompressionRatio= 1.94)
Closing buffer VIA ( 0.06 GB; CompressionRatio= 1.00)
  Phase 1 completed in     3.831 sec
Second Phase: sorting and transformation of aux index

IJ-Transformation
Memory available                       ... 1987 MB 
Max. # MO pairs treated in a batch     ... 33    
# of internal orbitals                 ... 33
# batches for internal orbitals        ... 1
Closing buffer IJV ( 0.00 GB; CompressionRatio= 1.00)
(ij|v) transformation done in     0.177 sec

IA-Transformation
Memory available                       ... 1987 MB 
Max. # MO pairs treated in a batch     ... 33    
# of internal orbitals                 ... 33
# batches for internal orbitals        ... 1
Closing buffer IAV ( 0.06 GB; CompressionRatio= 1.00)
(ia|v) transformation done in     1.293 sec

  Phase 2 completed in     1.490 sec
RI-Integral transformation completed in     5.321 sec
Opening buffers                              ... done
Frozen core precalculation                   ... done

Starting loop over batches of integrals:

Operator 0  - window                       ... (  9- 32)x( 33-326)
Operator 0  - Memory available             ...  2000 MB
Operator 0  - Memory needed per MO         ...   3.6 MB
Operator 0  - Number of orbitals per batch ... 24
Operator 0  - Number of batches            ... 1

OPERATOR  0   PASS   0:  MOs     9 ...   32
  Reading integrals       ... ok
  Internal MO  11
  Internal MO  14
  Internal MO  17
  Internal MO  20
  Internal MO  23
  Internal MO  26
  Internal MO  29
  Internal MO  32
Time spent in pair loops =    39.055 sec
Deleting buffer (Ka|jb)[aa] ...done

-----------------------------------------------
 RI-MP2 CORRELATION ENERGY:     -1.556847125 Eh
-----------------------------------------------


---------------------
MP2 DENSITY FORMATION
---------------------

Completing the external part of the density      ... done
Storing the unrelaxed density                    ... done

Calculating G(D)                                 ... done
Completing the Lagrangian                        ... done
Solving the Z-vector equations                   ... 

------------------------------------------------------------------------------
                           ORCA CP-SCF CALCULATION
------------------------------------------------------------------------------

Input orbitals are from        ... dsgdb9nsd_064950.gbw
Input Perturbation             ... dsgdb9nsd_064950.pin.tmp
Wavefunction output            ... dsgdb9nsd_064950.pout.tmp
Perturbation mode              ... Real perturbation
Solver                         ... POPLE
Max. number of iterations      ... 128
Convergence tolerance          ... 1.000e-08
Integral handling              ... Direct
Number of perturbations        ... 1
Number of operators            ... 1
Orbital ranges used for CP-SCF:
 Operator 0:  Orbitals   0... 32  to  33...326
Variables per vector in CP-SCF ... 9702
Number of vectors sought       ... 1
     CP-SCF ITERATION   0: 
     CP-SCF ITERATION   1:      0.001686896
     CP-SCF ITERATION   2:      0.000363910
     CP-SCF ITERATION   3:      0.000058795
     CP-SCF ITERATION   4:      0.000023114
     CP-SCF ITERATION   5:      0.000003922
     CP-SCF ITERATION   6:      0.000000509
     CP-SCF ITERATION   7:      0.000000055
     CP-SCF ITERATION   8:      0.000000006
done
Finalizing the relaxed density                   ... done
Transforming P to the AO basis                   ... done
Storing the relaxed density                      ... done

                *********************************************
                * UNRELAXED MP2 DENSITY POPULATION ANALYSIS *
                *********************************************

------------------------------------------------------------------------------
                           ORCA POPULATION ANALYSIS
------------------------------------------------------------------------------
Input electron density              ... dsgdb9nsd_064950.pmp2ur
BaseName (.gbw .S,...)              ... dsgdb9nsd_064950

                    ********************************
                    * MULLIKEN POPULATION ANALYSIS *
                    ********************************

-----------------------
MULLIKEN ATOMIC CHARGES
-----------------------
   0 O :   -0.518144
   1 C :    0.166956
   2 C :   -0.243054
   3 C :   -0.219526
   4 C :   -0.046462
   5 C :   -0.006023
   6 C :   -0.217793
   7 C :    0.213196
   8 O :   -0.369180
   9 H :    0.332266
  10 H :    0.126178
  11 H :    0.124615
  12 H :    0.129630
  13 H :    0.129618
  14 H :    0.153338
  15 H :    0.146390
  16 H :    0.097993
Sum of atomic charges:   -0.0000000

--------------------------------
MULLIKEN REDUCED ORBITAL CHARGES
--------------------------------
  0 O s       :     3.789939  s :     3.789939
      pz      :     1.832291  p :     4.660740
      px      :     1.542171
      py      :     1.286278
      dz2     :     0.010454  d :     0.062888
      dxz     :     0.008876
      dyz     :     0.012158
      dx2y2   :     0.013041
      dxy     :     0.018359
      f0      :     0.000646  f :     0.004577
      f+1     :     0.000598
      f-1     :     0.000719
      f+2     :     0.000597
      f-2     :     0.000565
      f+3     :     0.000568
      f-3     :     0.000884
  1 C s       :     3.132394  s :     3.132394
      pz      :     0.832058  p :     2.467049
      px      :     0.926797
      py      :     0.708195
      dz2     :     0.045721  d :     0.212710
      dxz     :     0.028591
      dyz     :     0.042048
      dx2y2   :     0.035106
      dxy     :     0.061243
      f0      :     0.002676  f :     0.020891
      f+1     :     0.002806
      f-1     :     0.003934
      f+2     :     0.002876
      f-2     :     0.002637
      f+3     :     0.003379
      f-3     :     0.002582
  2 C s       :     3.219389  s :     3.219389
      pz      :     0.835029  p :     2.911228
      px      :     1.032991
      py      :     1.043208
      dz2     :     0.019102  d :     0.100631
      dxz     :     0.025211
      dyz     :     0.021801
      dx2y2   :     0.014213
      dxy     :     0.020304
      f0      :     0.002463  f :     0.011806
      f+1     :     0.002261
      f-1     :     0.001593
      f+2     :     0.001508
      f-2     :     0.002015
      f+3     :     0.001162
      f-3     :     0.000804
  3 C s       :     3.214343  s :     3.214343
      pz      :     1.011483  p :     2.890464
      px      :     0.895300
      py      :     0.983681
      dz2     :     0.024435  d :     0.102726
      dxz     :     0.022664
      dyz     :     0.015803
      dx2y2   :     0.021311
      dxy     :     0.018513
      f0      :     0.001455  f :     0.011992
      f+1     :     0.001995
      f-1     :     0.001428
      f+2     :     0.001457
      f-2     :     0.001651
      f+3     :     0.001298
      f-3     :     0.002709
  4 C s       :     3.446544  s :     3.446544
      pz      :     0.870726  p :     2.476472
      px      :     0.660756
      py      :     0.944990
      dz2     :     0.022002  d :     0.108316
      dxz     :     0.023762
      dyz     :     0.016483
      dx2y2   :     0.030263
      dxy     :     0.015806
      f0      :     0.001085  f :     0.015131
      f+1     :     0.003274
      f-1     :     0.001357
      f+2     :     0.002128
      f-2     :     0.002243
      f+3     :     0.003133
      f-3     :     0.001913
  5 C s       :     3.381521  s :     3.381521
      pz      :     0.918655  p :     2.523125
      px      :     0.697534
      py      :     0.906936
      dz2     :     0.016150  d :     0.086616
      dxz     :     0.020561
      dyz     :     0.013004
      dx2y2   :     0.019904
      dxy     :     0.016997
      f0      :     0.001035  f :     0.014761
      f+1     :     0.003164
      f-1     :     0.001252
      f+2     :     0.002293
      f-2     :     0.002230
      f+3     :     0.002885
      f-3     :     0.001902
  6 C s       :     3.219213  s :     3.219213
      pz      :     0.975442  p :     2.869511
      px      :     0.928046
      py      :     0.966024
      dz2     :     0.016126  d :     0.119419
      dxz     :     0.027071
      dyz     :     0.029078
      dx2y2   :     0.020819
      dxy     :     0.026325
      f0      :     0.000906  f :     0.009649
      f+1     :     0.001070
      f-1     :     0.001110
      f+2     :     0.001636
      f-2     :     0.002561
      f+3     :     0.001199
      f-3     :     0.001167
  7 C s       :     3.190038  s :     3.190038
      pz      :     0.763474  p :     2.374261
      px      :     0.838745
      py      :     0.772042
      dz2     :     0.015456  d :     0.203057
      dxz     :     0.026718
      dyz     :     0.055256
      dx2y2   :     0.064091
      dxy     :     0.041537
      f0      :     0.002278  f :     0.019447
      f+1     :     0.001248
      f-1     :     0.002131
      f+2     :     0.002373
      f-2     :     0.003340
      f+3     :     0.002948
      f-3     :     0.005128
  8 O s       :     3.831459  s :     3.831459
      pz      :     1.526028  p :     4.470455
      px      :     1.555918
      py      :     1.388510
      dz2     :     0.008837  d :     0.062439
      dxz     :     0.008427
      dyz     :     0.013788
      dx2y2   :     0.016225
      dxy     :     0.015162
      f0      :     0.000616  f :     0.004827
      f+1     :     0.000442
      f-1     :     0.000619
      f+2     :     0.000503
      f-2     :     0.000698
      f+3     :     0.000915
      f-3     :     0.001034
  9 H s       :     0.620722  s :     0.620722
      pz      :     0.015141  p :     0.047012
      px      :     0.017105
      py      :     0.014766
 10 H s       :     0.847476  s :     0.847476
      pz      :     0.007370  p :     0.026346
      px      :     0.009563
      py      :     0.009413
 11 H s       :     0.849130  s :     0.849130
      pz      :     0.008001  p :     0.026255
      px      :     0.006166
      py      :     0.012088
 12 H s       :     0.844080  s :     0.844080
      pz      :     0.005537  p :     0.026290
      px      :     0.014237
      py      :     0.006516
 13 H s       :     0.844133  s :     0.844133
      pz      :     0.005826  p :     0.026249
      px      :     0.004186
      py      :     0.016236
 14 H s       :     0.821367  s :     0.821367
      pz      :     0.008457  p :     0.025295
      px      :     0.007457
      py      :     0.009381
 15 H s       :     0.828198  s :     0.828198
      pz      :     0.008872  p :     0.025412
      px      :     0.010625
      py      :     0.005915
 16 H s       :     0.877920  s :     0.877920
      pz      :     0.006709  p :     0.024087
      px      :     0.013765
      py      :     0.003612


                     *******************************
                     * LOEWDIN POPULATION ANALYSIS *
                     *******************************

----------------------
LOEWDIN ATOMIC CHARGES
----------------------
   0 O :    0.011264
   1 C :   -0.337628
   2 C :   -0.175800
   3 C :   -0.166457
   4 C :   -0.036083
   5 C :   -0.077380
   6 C :   -0.219407
   7 C :   -0.233109
   8 O :    0.086009
   9 H :    0.182621
  10 H :    0.129671
  11 H :    0.130725
  12 H :    0.135555
  13 H :    0.130926
  14 H :    0.164192
  15 H :    0.157570
  16 H :    0.117332

-------------------------------
LOEWDIN REDUCED ORBITAL CHARGES
-------------------------------
  0 O s       :     3.345401  s :     3.345401
      pz      :     1.722306  p :     4.536793
      px      :     1.519691
      py      :     1.294796
      dz2     :     0.016640  d :     0.099171
      dxz     :     0.009278
      dyz     :     0.019570
      dx2y2   :     0.019652
      dxy     :     0.034032
      f0      :     0.000712  f :     0.007371
      f+1     :     0.000714
      f-1     :     0.001186
      f+2     :     0.000946
      f-2     :     0.000964
      f+3     :     0.001013
      f-3     :     0.001837
  1 C s       :     2.666817  s :     2.666817
      pz      :     0.946295  p :     2.764948
      px      :     0.979753
      py      :     0.838900
      dz2     :     0.159876  d :     0.791347
      dxz     :     0.133296
      dyz     :     0.169428
      dx2y2   :     0.149296
      dxy     :     0.179452
      f0      :     0.012869  f :     0.114515
      f+1     :     0.014471
      f-1     :     0.021623
      f+2     :     0.015661
      f-2     :     0.014034
      f+3     :     0.021351
      f-3     :     0.014505
  2 C s       :     2.774332  s :     2.774332
      pz      :     0.938408  p :     2.980896
      px      :     1.019997
      py      :     1.022491
      dz2     :     0.086183  d :     0.373828
      dxz     :     0.089286
      dyz     :     0.097142
      dx2y2   :     0.042992
      dxy     :     0.058225
      f0      :     0.012393  f :     0.046744
      f+1     :     0.011039
      f-1     :     0.006083
      f+2     :     0.005281
      f-2     :     0.005261
      f+3     :     0.004674
      f-3     :     0.002013
  3 C s       :     2.770029  s :     2.770029
      pz      :     1.010478  p :     2.971601
      px      :     0.961317
      py      :     0.999805
      dz2     :     0.082022  d :     0.377083
      dxz     :     0.067632
      dyz     :     0.047806
      dx2y2   :     0.099911
      dxy     :     0.079713
      f0      :     0.004779  f :     0.047745
      f+1     :     0.009053
      f-1     :     0.005678
      f+2     :     0.006147
      f-2     :     0.008190
      f+3     :     0.004327
      f-3     :     0.009572
  4 C s       :     2.780796  s :     2.780796
      pz      :     0.906505  p :     2.836877
      px      :     1.003021
      py      :     0.927352
      dz2     :     0.076188  d :     0.366021
      dxz     :     0.071751
      dyz     :     0.047956
      dx2y2   :     0.097004
      dxy     :     0.073121
      f0      :     0.004894  f :     0.052389
      f+1     :     0.009229
      f-1     :     0.003324
      f+2     :     0.007205
      f-2     :     0.010296
      f+3     :     0.008754
      f-3     :     0.008687
  5 C s       :     2.785810  s :     2.785810
      pz      :     0.935048  p :     2.874459
      px      :     1.037156
      py      :     0.902254
      dz2     :     0.063197  d :     0.365206
      dxz     :     0.083507
      dyz     :     0.047839
      dx2y2   :     0.089139
      dxy     :     0.081525
      f0      :     0.004549  f :     0.051905
      f+1     :     0.009121
      f-1     :     0.003069
      f+2     :     0.008264
      f-2     :     0.009888
      f+3     :     0.008311
      f-3     :     0.008704
  6 C s       :     2.767438  s :     2.767438
      pz      :     1.003205  p :     3.004441
      px      :     1.001454
      py      :     0.999782
      dz2     :     0.043796  d :     0.403974
      dxz     :     0.102627
      dyz     :     0.101565
      dx2y2   :     0.068810
      dxy     :     0.087176
      f0      :     0.004970  f :     0.043554
      f+1     :     0.005750
      f-1     :     0.005567
      f+2     :     0.005711
      f-2     :     0.007958
      f+3     :     0.007243
      f-3     :     0.006354
  7 C s       :     2.831183  s :     2.831183
      pz      :     0.786110  p :     2.625254
      px      :     0.896402
      py      :     0.942742
      dz2     :     0.066900  d :     0.673482
      dxz     :     0.069689
      dyz     :     0.166347
      dx2y2   :     0.198967
      dxy     :     0.171579
      f0      :     0.011475  f :     0.103190
      f+1     :     0.006558
      f-1     :     0.010345
      f+2     :     0.011121
      f-2     :     0.016452
      f+3     :     0.016444
      f-3     :     0.030795
  8 O s       :     3.405361  s :     3.405361
      pz      :     1.415673  p :     4.398874
      px      :     1.505539
      py      :     1.477662
      dz2     :     0.014062  d :     0.100545
      dxz     :     0.009596
      dyz     :     0.020087
      dx2y2   :     0.026678
      dxy     :     0.030122
      f0      :     0.001009  f :     0.009211
      f+1     :     0.000707
      f-1     :     0.001223
      f+2     :     0.000780
      f-2     :     0.001113
      f+3     :     0.002240
      f-3     :     0.002139
  9 H s       :     0.657311  s :     0.657311
      pz      :     0.044794  p :     0.160068
      px      :     0.071588
      py      :     0.043686
 10 H s       :     0.802708  s :     0.802708
      pz      :     0.017629  p :     0.067621
      px      :     0.024735
      py      :     0.025257
 11 H s       :     0.801896  s :     0.801896
      pz      :     0.018834  p :     0.067379
      px      :     0.017549
      py      :     0.030995
 12 H s       :     0.797125  s :     0.797125
      pz      :     0.015414  p :     0.067320
      px      :     0.033262
      py      :     0.018644
 13 H s       :     0.801787  s :     0.801787
      pz      :     0.016024  p :     0.067287
      px      :     0.011709
      py      :     0.039555
 14 H s       :     0.772738  s :     0.772738
      pz      :     0.021707  p :     0.063070
      px      :     0.017535
      py      :     0.023828
 15 H s       :     0.778798  s :     0.778798
      pz      :     0.022888  p :     0.063631
      px      :     0.024857
      py      :     0.015887
 16 H s       :     0.822576  s :     0.822576
      pz      :     0.016631  p :     0.060092
      px      :     0.034382
      py      :     0.009079


                      *****************************
                      * MAYER POPULATION ANALYSIS *
                      *****************************

  NA   - Mulliken gross atomic population
  ZA   - Total nuclear charge
  QA   - Mulliken gross atomic charge
  VA   - Mayer's total valence
  BVA  - Mayer's bonded valence
  FA   - Mayer's free valence

  ATOM       NA         ZA         QA         VA         BVA        FA
  0 O      8.5181     8.0000    -0.5181     2.1504     1.7436     0.4069
  1 C      5.8330     6.0000     0.1670     3.7733     3.4478     0.3255
  2 C      6.2431     6.0000    -0.2431     4.0208     3.6845     0.3363
  3 C      6.2195     6.0000    -0.2195     3.9718     3.6409     0.3309
  4 C      6.0465     6.0000    -0.0465     4.1087     3.6566     0.4521
  5 C      6.0060     6.0000    -0.0060     3.6780     3.2402     0.4378
  6 C      6.2178     6.0000    -0.2178     3.7788     3.4770     0.3018
  7 C      5.7868     6.0000     0.2132     4.0474     3.7087     0.3387
  8 O      8.3692     8.0000    -0.3692     2.3172     1.8674     0.4498
  9 H      0.6677     1.0000     0.3323     0.9078     0.8568     0.0510
 10 H      0.8738     1.0000     0.1262     0.9821     0.9329     0.0492
 11 H      0.8754     1.0000     0.1246     0.9875     0.9386     0.0489
 12 H      0.8704     1.0000     0.1296     0.9918     0.9434     0.0485
 13 H      0.8704     1.0000     0.1296     0.9831     0.9346     0.0486
 14 H      0.8467     1.0000     0.1533     0.9725     0.9215     0.0509
 15 H      0.8536     1.0000     0.1464     0.9870     0.9371     0.0498
 16 H      0.9020     1.0000     0.0980     0.9778     0.9260     0.0518

  Mayer bond orders larger than 0.1
B(  0-O ,  1-C ) :   0.8545 B(  0-O ,  9-H ) :   0.8390 B(  1-C ,  2-C ) :   0.8831 
B(  1-C ,  3-C ) :   0.8533 B(  1-C ,  4-C ) :   1.0857 B(  1-C ,  5-C ) :  -0.1892 
B(  2-C ,  3-C ) :   0.9316 B(  2-C , 10-H ) :   0.9295 B(  2-C , 11-H ) :   0.9350 
B(  3-C , 12-H ) :   0.9358 B(  3-C , 13-H ) :   0.9379 B(  4-C ,  5-C ) :   2.5906 
B(  4-C ,  6-C ) :  -0.1069 B(  5-C ,  6-C ) :   0.8929 B(  6-C ,  7-C ) :   0.9070 
B(  6-C , 14-H ) :   0.9596 B(  6-C , 15-H ) :   0.9234 B(  7-C ,  8-O ) :   1.8712 
B(  7-C , 16-H ) :   0.9460 


                *******************************************
                * RELAXED MP2 DENSITY POPULATION ANALYSIS *
                *******************************************

------------------------------------------------------------------------------
                           ORCA POPULATION ANALYSIS
------------------------------------------------------------------------------
Input electron density              ... dsgdb9nsd_064950.pmp2re
BaseName (.gbw .S,...)              ... dsgdb9nsd_064950

                    ********************************
                    * MULLIKEN POPULATION ANALYSIS *
                    ********************************

-----------------------
MULLIKEN ATOMIC CHARGES
-----------------------
   0 O :   -0.462148
   1 C :    0.145968
   2 C :   -0.274618
   3 C :   -0.250209
   4 C :   -0.073739
   5 C :   -0.006362
   6 C :   -0.245795
   7 C :    0.121028
   8 O :   -0.253507
   9 H :    0.325412
  10 H :    0.137591
  11 H :    0.137041
  12 H :    0.142330
  13 H :    0.143387
  14 H :    0.165256
  15 H :    0.154800
  16 H :    0.093565
Sum of atomic charges:   -0.0000000

--------------------------------
MULLIKEN REDUCED ORBITAL CHARGES
--------------------------------
  0 O s       :     3.785445  s :     3.785445
      pz      :     1.811738  p :     4.611905
      px      :     1.517388
      py      :     1.282779
      dz2     :     0.010339  d :     0.060297
      dxz     :     0.008964
      dyz     :     0.011654
      dx2y2   :     0.012189
      dxy     :     0.017151
      f0      :     0.000638  f :     0.004501
      f+1     :     0.000589
      f-1     :     0.000719
      f+2     :     0.000587
      f-2     :     0.000556
      f+3     :     0.000559
      f-3     :     0.000853
  1 C s       :     3.113482  s :     3.113482
      pz      :     0.834838  p :     2.514633
      px      :     0.946537
      py      :     0.733259
      dz2     :     0.040523  d :     0.205690
      dxz     :     0.030489
      dyz     :     0.041165
      dx2y2   :     0.036179
      dxy     :     0.057333
      f0      :     0.002447  f :     0.020227
      f+1     :     0.002787
      f-1     :     0.003905
      f+2     :     0.002803
      f-2     :     0.002502
      f+3     :     0.003462
      f-3     :     0.002321
  2 C s       :     3.230839  s :     3.230839
      pz      :     0.845064  p :     2.943698
      px      :     1.043453
      py      :     1.055181
      dz2     :     0.017956  d :     0.088816
      dxz     :     0.021742
      dyz     :     0.018238
      dx2y2   :     0.013839
      dxy     :     0.017041
      f0      :     0.002294  f :     0.011266
      f+1     :     0.002175
      f-1     :     0.001580
      f+2     :     0.001484
      f-2     :     0.001863
      f+3     :     0.001117
      f-3     :     0.000754
  3 C s       :     3.225925  s :     3.225925
      pz      :     1.024967  p :     2.922409
      px      :     0.903333
      py      :     0.994110
      dz2     :     0.021861  d :     0.090446
      dxz     :     0.019233
      dyz     :     0.014848
      dx2y2   :     0.018368
      dxy     :     0.016137
      f0      :     0.001415  f :     0.011428
      f+1     :     0.001876
      f-1     :     0.001362
      f+2     :     0.001426
      f-2     :     0.001526
      f+3     :     0.001355
      f-3     :     0.002469
  4 C s       :     3.351794  s :     3.351794
      pz      :     0.887502  p :     2.617302
      px      :     0.758490
      py      :     0.971310
      dz2     :     0.019022  d :     0.090243
      dxz     :     0.018697
      dyz     :     0.014554
      dx2y2   :     0.025576
      dxy     :     0.012394
      f0      :     0.001042  f :     0.014400
      f+1     :     0.003132
      f-1     :     0.001292
      f+2     :     0.002046
      f-2     :     0.002110
      f+3     :     0.002966
      f-3     :     0.001814
  5 C s       :     3.264467  s :     3.264467
      pz      :     0.932374  p :     2.656225
      px      :     0.768774
      py      :     0.955078
      dz2     :     0.013968  d :     0.071753
      dxz     :     0.015534
      dyz     :     0.011614
      dx2y2   :     0.016379
      dxy     :     0.014258
      f0      :     0.000981  f :     0.013917
      f+1     :     0.002963
      f-1     :     0.001214
      f+2     :     0.002152
      f-2     :     0.002090
      f+3     :     0.002730
      f-3     :     0.001787
  6 C s       :     3.200697  s :     3.200697
      pz      :     0.991111  p :     2.925644
      px      :     0.949579
      py      :     0.984953
      dz2     :     0.017036  d :     0.110226
      dxz     :     0.024269
      dyz     :     0.025070
      dx2y2   :     0.020101
      dxy     :     0.023750
      f0      :     0.000823  f :     0.009229
      f+1     :     0.001095
      f-1     :     0.001120
      f+2     :     0.001555
      f-2     :     0.002320
      f+3     :     0.001186
      f-3     :     0.001128
  7 C s       :     3.212137  s :     3.212137
      pz      :     0.809522  p :     2.457781
      px      :     0.867556
      py      :     0.780702
      dz2     :     0.016493  d :     0.191073
      dxz     :     0.023740
      dyz     :     0.050058
      dx2y2   :     0.058943
      dxy     :     0.041839
      f0      :     0.002054  f :     0.017981
      f+1     :     0.001218
      f-1     :     0.002062
      f+2     :     0.002176
      f-2     :     0.002950
      f+3     :     0.002894
      f-3     :     0.004627
  8 O s       :     3.812553  s :     3.812553
      pz      :     1.476970  p :     4.376845
      px      :     1.520794
      py      :     1.379081
      dz2     :     0.008395  d :     0.059425
      dxz     :     0.008107
      dyz     :     0.013364
      dx2y2   :     0.015427
      dxy     :     0.014132
      f0      :     0.000611  f :     0.004684
      f+1     :     0.000435
      f-1     :     0.000582
      f+2     :     0.000502
      f-2     :     0.000680
      f+3     :     0.000842
      f-3     :     0.001030
  9 H s       :     0.626953  s :     0.626953
      pz      :     0.016157  p :     0.047635
      px      :     0.016837
      py      :     0.014640
 10 H s       :     0.837129  s :     0.837129
      pz      :     0.007186  p :     0.025280
      px      :     0.009150
      py      :     0.008945
 11 H s       :     0.837730  s :     0.837730
      pz      :     0.007718  p :     0.025229
      px      :     0.006309
      py      :     0.011202
 12 H s       :     0.832440  s :     0.832440
      pz      :     0.005835  p :     0.025229
      px      :     0.013045
      py      :     0.006349
 13 H s       :     0.831431  s :     0.831431
      pz      :     0.006075  p :     0.025182
      px      :     0.004389
      py      :     0.014718
 14 H s       :     0.810516  s :     0.810516
      pz      :     0.008054  p :     0.024229
      px      :     0.007232
      py      :     0.008942
 15 H s       :     0.821002  s :     0.821002
      pz      :     0.008457  p :     0.024198
      px      :     0.009887
      py      :     0.005854
 16 H s       :     0.883766  s :     0.883766
      pz      :     0.006391  p :     0.022669
      px      :     0.012460
      py      :     0.003818


                     *******************************
                     * LOEWDIN POPULATION ANALYSIS *
                     *******************************

----------------------
LOEWDIN ATOMIC CHARGES
----------------------
   0 O :    0.033030
   1 C :   -0.360057
   2 C :   -0.195220
   3 C :   -0.184658
   4 C :   -0.036867
   5 C :   -0.070527
   6 C :   -0.246115
   7 C :   -0.274803
   8 O :    0.142623
   9 H :    0.185009
  10 H :    0.136792
  11 H :    0.137987
  12 H :    0.142890
  13 H :    0.138715
  14 H :    0.172022
  15 H :    0.162797
  16 H :    0.116382

-------------------------------
LOEWDIN REDUCED ORBITAL CHARGES
-------------------------------
  0 O s       :     3.349324  s :     3.349324
      pz      :     1.706745  p :     4.511966
      px      :     1.510838
      py      :     1.294383
      dz2     :     0.016693  d :     0.098234
      dxz     :     0.009421
      dyz     :     0.019504
      dx2y2   :     0.019208
      dxy     :     0.033408
      f0      :     0.000724  f :     0.007446
      f+1     :     0.000715
      f-1     :     0.001197
      f+2     :     0.000967
      f-2     :     0.000966
      f+3     :     0.001024
      f-3     :     0.001853
  1 C s       :     2.673900  s :     2.673900
      pz      :     0.948165  p :     2.775223
      px      :     0.982975
      py      :     0.844084
      dz2     :     0.161743  d :     0.797866
      dxz     :     0.133032
      dyz     :     0.172285
      dx2y2   :     0.151340
      dxy     :     0.179466
      f0      :     0.012838  f :     0.113068
      f+1     :     0.014379
      f-1     :     0.021117
      f+2     :     0.015632
      f-2     :     0.013573
      f+3     :     0.021369
      f-3     :     0.014159
  2 C s       :     2.781070  s :     2.781070
      pz      :     0.943722  p :     3.004680
      px      :     1.028844
      py      :     1.032113
      dz2     :     0.084817  d :     0.363365
      dxz     :     0.086462
      dyz     :     0.094279
      dx2y2   :     0.043008
      dxy     :     0.054799
      f0      :     0.012057  f :     0.046105
      f+1     :     0.010845
      f-1     :     0.006133
      f+2     :     0.005304
      f-2     :     0.005130
      f+3     :     0.004670
      f-3     :     0.001965
  3 C s       :     2.776327  s :     2.776327
      pz      :     1.020428  p :     2.995446
      px      :     0.966379
      py      :     1.008639
      dz2     :     0.079003  d :     0.365795
      dxz     :     0.064795
      dyz     :     0.047168
      dx2y2   :     0.097513
      dxy     :     0.077316
      f0      :     0.004714  f :     0.047091
      f+1     :     0.008825
      f-1     :     0.005597
      f+2     :     0.006154
      f-2     :     0.008121
      f+3     :     0.004536
      f-3     :     0.009144
  4 C s       :     2.785240  s :     2.785240
      pz      :     0.915474  p :     2.846857
      px      :     1.008538
      py      :     0.922845
      dz2     :     0.072350  d :     0.351737
      dxz     :     0.069687
      dyz     :     0.045881
      dx2y2   :     0.092115
      dxy     :     0.071705
      f0      :     0.005053  f :     0.053034
      f+1     :     0.009102
      f-1     :     0.003226
      f+2     :     0.007468
      f-2     :     0.010492
      f+3     :     0.008703
      f-3     :     0.008990
  5 C s       :     2.789947  s :     2.789947
      pz      :     0.932362  p :     2.872173
      px      :     1.028420
      py      :     0.911391
      dz2     :     0.061532  d :     0.355844
      dxz     :     0.080775
      dyz     :     0.047279
      dx2y2   :     0.087471
      dxy     :     0.078786
      f0      :     0.004673  f :     0.052563
      f+1     :     0.009221
      f-1     :     0.003103
      f+2     :     0.008157
      f-2     :     0.010215
      f+3     :     0.008347
      f-3     :     0.008847
  6 C s       :     2.775052  s :     2.775052
      pz      :     1.011747  p :     3.032620
      px      :     1.010962
      py      :     1.009911
      dz2     :     0.046504  d :     0.394770
      dxz     :     0.098357
      dyz     :     0.096955
      dx2y2   :     0.068439
      dxy     :     0.084514
      f0      :     0.004939  f :     0.043672
      f+1     :     0.005886
      f-1     :     0.005744
      f+2     :     0.005740
      f-2     :     0.007623
      f+3     :     0.007397
      f-3     :     0.006344
  7 C s       :     2.837555  s :     2.837555
      pz      :     0.817026  p :     2.674365
      px      :     0.913679
      py      :     0.943661
      dz2     :     0.067915  d :     0.664374
      dxz     :     0.065081
      dyz     :     0.162963
      dx2y2   :     0.195234
      dxy     :     0.173182
      f0      :     0.010650  f :     0.098509
      f+1     :     0.006505
      f-1     :     0.010222
      f+2     :     0.010482
      f-2     :     0.015587
      f+3     :     0.016586
      f-3     :     0.028476
  8 O s       :     3.407344  s :     3.407344
      pz      :     1.384002  p :     4.340050
      px      :     1.485087
      py      :     1.470961
      dz2     :     0.013879  d :     0.100626
      dxz     :     0.009602
      dyz     :     0.020483
      dx2y2   :     0.026858
      dxy     :     0.029804
      f0      :     0.001042  f :     0.009357
      f+1     :     0.000708
      f-1     :     0.001224
      f+2     :     0.000791
      f-2     :     0.001152
      f+3     :     0.002228
      f-3     :     0.002213
  9 H s       :     0.654062  s :     0.654062
      pz      :     0.045869  p :     0.160929
      px      :     0.071794
      py      :     0.043266
 10 H s       :     0.794885  s :     0.794885
      pz      :     0.018041  p :     0.068323
      px      :     0.024920
      py      :     0.025362
 11 H s       :     0.793876  s :     0.793876
      pz      :     0.019215  p :     0.068137
      px      :     0.018095
      py      :     0.030827
 12 H s       :     0.789084  s :     0.789084
      pz      :     0.016095  p :     0.068026
      px      :     0.033051
      py      :     0.018880
 13 H s       :     0.793309  s :     0.793309
      pz      :     0.016659  p :     0.067976
      px      :     0.012235
      py      :     0.039082
 14 H s       :     0.764110  s :     0.764110
      pz      :     0.021913  p :     0.063867
      px      :     0.017800
      py      :     0.024154
 15 H s       :     0.773091  s :     0.773091
      pz      :     0.023111  p :     0.064112
      px      :     0.024733
      py      :     0.016269
 16 H s       :     0.822585  s :     0.822585
      pz      :     0.016933  p :     0.061033
      px      :     0.034253
      py      :     0.009848


                      *****************************
                      * MAYER POPULATION ANALYSIS *
                      *****************************

  NA   - Mulliken gross atomic population
  ZA   - Total nuclear charge
  QA   - Mulliken gross atomic charge
  VA   - Mayer's total valence
  BVA  - Mayer's bonded valence
  FA   - Mayer's free valence

  ATOM       NA         ZA         QA         VA         BVA        FA
  0 O      8.4621     8.0000    -0.4621     2.2314     1.8328     0.3986
  1 C      5.8540     6.0000     0.1460     3.9453     3.6258     0.3195
  2 C      6.2746     6.0000    -0.2746     3.9882     3.6554     0.3328
  3 C      6.2502     6.0000    -0.2502     3.9425     3.6151     0.3274
  4 C      6.0737     6.0000    -0.0737     4.2888     3.8531     0.4356
  5 C      6.0064     6.0000    -0.0064     3.8347     3.4074     0.4273
  6 C      6.2458     6.0000    -0.2458     3.7394     3.4385     0.3008
  7 C      5.8790     6.0000     0.1210     4.1525     3.8248     0.3278
  8 O      8.2535     8.0000    -0.2535     2.4496     2.0151     0.4345
  9 H      0.6746     1.0000     0.3254     0.9113     0.8604     0.0510
 10 H      0.8624     1.0000     0.1376     0.9782     0.9298     0.0483
 11 H      0.8630     1.0000     0.1370     0.9846     0.9366     0.0480
 12 H      0.8577     1.0000     0.1423     0.9882     0.9406     0.0476
 13 H      0.8566     1.0000     0.1434     0.9786     0.9307     0.0479
 14 H      0.8347     1.0000     0.1653     0.9658     0.9160     0.0497
 15 H      0.8452     1.0000     0.1548     0.9868     0.9383     0.0485
 16 H      0.9064     1.0000     0.0936     0.9689     0.9190     0.0499

  Mayer bond orders larger than 0.1
B(  0-O ,  1-C ) :   0.9341 B(  0-O ,  9-H ) :   0.8373 B(  1-C ,  2-C ) :   0.8739 
B(  1-C ,  3-C ) :   0.8534 B(  1-C ,  4-C ) :   1.0696 B(  2-C ,  3-C ) :   0.9189 
B(  2-C , 10-H ) :   0.9188 B(  2-C , 11-H ) :   0.9223 B(  3-C , 12-H ) :   0.9218 
B(  3-C , 13-H ) :   0.9299 B(  4-C ,  5-C ) :   2.6648 B(  5-C ,  6-C ) :   0.8600 
B(  6-C ,  7-C ) :   0.8964 B(  6-C , 14-H ) :   0.9304 B(  6-C , 15-H ) :   0.9090 
B(  7-C ,  8-O ) :   2.0018 B(  7-C , 16-H ) :   0.9284 


-------
TIMINGS
-------

Total time                :  652.658 sec
Integral trafo            :    5.329 sec (  0.8%)
FC preparation            :    3.101 sec (  0.5%)
I/O of integrals          :    0.047 sec (  0.0%)
K(i,j) Operators          :    8.754 sec (  1.3%)
T(i,j) pair energies      :    0.723 sec (  0.1%)
V-calculation             :    0.016 sec (  0.0%)
V**(-1/2)                 :    0.104 sec (  0.0%)
Gamma(ia|P)               :    8.549 sec (  1.3%)
Gamma-Trafo               :    2.676 sec (  0.4%)
D(virtual)                :    3.584 sec (  0.5%)
D(internal)               :    2.703 sec (  0.4%)
W(virtual)                :    0.000 sec (  0.0%)
W(internal)               :    0.000 sec (  0.0%)
L(virtual)                :   11.556 sec (  1.8%)
L(internal)               :    0.211 sec (  0.0%)
G(D)                      :   69.114 sec ( 10.6%)
G(Z)                      :    0.000 sec (  0.0%)
Z-Vector Solution         :  535.559 sec ( 82.1%)
3-Index Derivative        :    0.000 sec (  0.0%)
2-Index Derivative        :    0.000 sec (  0.0%)
Separable Gradient (RIJ)  :    0.000 sec (  0.0%)
Separable Gradient (X)    :    0.000 sec (  0.0%)


---------------------------------------
MP2 TOTAL ENERGY:     -421.065849591 Eh
---------------------------------------

-------------------------   --------------------
FINAL SINGLE POINT ENERGY      -421.065849591456
-------------------------   --------------------


                            ***************************************
                            *     ORCA property calculations      *
                            ***************************************

                                    ---------------------
                                    Active property flags
                                    ---------------------
   (+) Dipole Moment


------------------------------------------------------------------------------
                       ORCA ELECTRIC PROPERTIES CALCULATION
------------------------------------------------------------------------------

Dipole Moment Calculation                       ... on
Quadrupole Moment Calculation                   ... off
Polarizability Calculation                      ... off
GBWName                                         ... dsgdb9nsd_064950.gbw
Electron density file                           ... dsgdb9nsd_064950.scfp.tmp

-------------
DIPOLE MOMENT
-------------
                                X             Y             Z
Electronic contribution:      2.78431      -1.38382      -3.58042
Nuclear contribution   :     -2.78419       2.31270       4.14963
                        -----------------------------------------
Total Dipole Moment    :      0.00012       0.92888       0.56922
                        -----------------------------------------
Magnitude (a.u.)       :      1.08942
Magnitude (Debye)      :      2.76907


                         *** MP2 UNRELAXED DENSITY ***

------------------------------------------------------------------------------
                       ORCA ELECTRIC PROPERTIES CALCULATION
------------------------------------------------------------------------------

Dipole Moment Calculation                       ... on
Quadrupole Moment Calculation                   ... off
Polarizability Calculation                      ... off
GBWName                                         ... dsgdb9nsd_064950.gbw
Electron density file                           ... dsgdb9nsd_064950.pmp2ur

-------------
DIPOLE MOMENT
-------------
                                X             Y             Z
Electronic contribution:      2.79645      -1.41745      -3.59441
Nuclear contribution   :     -2.78419       2.31270       4.14963
                        -----------------------------------------
Total Dipole Moment    :      0.01226       0.89524       0.55522
                        -----------------------------------------
Magnitude (a.u.)       :      1.05351
Magnitude (Debye)      :      2.67781


                           *** MP2 RELAXED DENSITY ***

------------------------------------------------------------------------------
                       ORCA ELECTRIC PROPERTIES CALCULATION
------------------------------------------------------------------------------

Dipole Moment Calculation                       ... on
Quadrupole Moment Calculation                   ... off
Polarizability Calculation                      ... off
GBWName                                         ... dsgdb9nsd_064950.gbw
Electron density file                           ... dsgdb9nsd_064950.pmp2re

-------------
DIPOLE MOMENT
-------------
                                X             Y             Z
Electronic contribution:      2.89080      -1.55493      -3.67281
Nuclear contribution   :     -2.78419       2.31270       4.14963
                        -----------------------------------------
Total Dipole Moment    :      0.10661       0.75776       0.47682
                        -----------------------------------------
Magnitude (a.u.)       :      0.90163
Magnitude (Debye)      :      2.29175


Timings for individual modules:

Sum of individual times         ...      782.304 sec (=  13.038 min)
GTO integral calculation        ...        0.489 sec (=   0.008 min)   0.1 %
SCF iterations                  ...      129.009 sec (=   2.150 min)  16.5 %
MP2 module                      ...      652.806 sec (=  10.880 min)  83.4 %
                             ****ORCA TERMINATED NORMALLY****
TOTAL RUN TIME: 0 days 0 hours 13 minutes 2 seconds 770 msec
