
                                 *****************
                                 * O   R   C   A *
                                 *****************

           --- An Ab Initio, DFT and Semiempirical electronic structure package ---

                  #######################################################
                  #                        -***-                        #
                  #  Department of molecular theory and spectroscopy    #
                  #              Directorship: Frank Neese              #
                  # Max Planck Institute for Chemical Energy Conversion #
                  #                  D-45470 Muelheim/Ruhr              #
                  #                       Germany                       #
                  #                                                     #
                  #                  All rights reserved                #
                  #                        -***-                        #
                  #######################################################


                         Program Version 3.0.3 - RELEASE   -


 With contributions from (in alphabetic order):
   Ute Becker             : Parallelization
   Dmytro Bykov           : SCF Hessian
   Dmitry Ganyushin       : Spin-Orbit,Spin-Spin,Magnetic field MRCI
   Andreas Hansen         : Spin unrestricted coupled pair/coupled cluster methods
   Dimitrios Liakos       : Extrapolation schemes; parallel MDCI
   Robert Izsak           : Overlap fitted RIJCOSX, COSX-SCS-MP3
   Christian Kollmar      : KDIIS, OOCD, Brueckner-CCSD(T), CCSD density
   Simone Kossmann        : Meta GGA functionals, TD-DFT gradient, OOMP2, MP2 Hessian
   Taras Petrenko         : DFT Hessian,TD-DFT gradient, ASA and ECA modules, normal mode analysis, Resonance Raman, ABS, FL, XAS/XES, NRVS
   Christoph Reimann      : Effective Core Potentials
   Michael Roemelt        : Restricted open shell CIS
   Christoph Riplinger    : Improved optimizer, TS searches, QM/MM, DLPNO-CCSD
   Barbara Sandhoefer     : DKH picture change effects
   Igor Schapiro          : Molecular dynamics
   Kantharuban Sivalingam : CASSCF convergence, NEVPT2
   Boris Wezisla          : Elementary symmetry handling
   Frank Wennmohs         : Technical directorship


 We gratefully acknowledge several colleagues who have allowed us to
 interface, adapt or use parts of their codes:
   Stefan Grimme, W. Hujo, H. Kruse, T. Risthaus : VdW corrections, initial TS optimization,
                                                   DFT functionals, gCP
   Ed Valeev                                     : LibInt (2-el integral package), F12 methods
   Garnet Chan, S. Sharma, R. Olivares           : DMRG
   Ulf Ekstrom                                   : XCFun DFT Library
   Mihaly Kallay                                 : mrcc  (arbitrary order and MRCC methods)
   Andreas Klamt, Michael Diedenhofen            : otool_cosmo (COSMO solvation model)
   Frank Weinhold                                : gennbo (NPA and NBO analysis)
   Christopher J. Cramer and Donald G. Truhlar   : smd solvation model


 Your calculation uses the libint2 library for the computation of 2-el integrals
 For citations please refer to: http://libint.valeyev.net

 This ORCA versions uses:
   CBLAS   interface :  Fast vector & matrix operations
   LAPACKE interface :  Fast linear algebra routines
   SCALAPACK package :  Parallel linear algebra routines


Your calculation utilizes the basis: Ahlrichs-TZV
Cite in your paper:
H - Kr: A. Schaefer, H. Horn and R. Ahlrichs, J. Chem. Phys. 97, 2571 (1992).

The def2-TZV basis will be loaded
Cite in your paper:
 	F. Weigend, R. Ahlrichs, Phys. Chem. Chem. Phys. 2005, 7, 3297.

================================================================================
                                        WARNINGS
                       Please study these warnings very carefully!
================================================================================
Now building the actual basis set


INFO   : the flag for use of LIBINT has been found!

================================================================================
                                       INPUT FILE
================================================================================
NAME = dsgdb9nsd_104654.inp
|  1> ! RI-MP2 RIJK def2-TZVP def2-TZVP/C def2-TZVP/JK TIGHTSCF
|  2> % maxcore 2000
|  3> % mp2 density relaxed end
|  4> *xyz 0 1
|  5>  O        0.0001696378     1.6605682389     0.2134458737 
|  6>  C        0.1445369705     0.2700709095     0.4082099159 
|  7>  C       -1.1230517010    -0.5069539415     0.0526900167 
|  8>  C       -1.5727564882    -0.4780175128    -1.4547692822 
|  9>  C       -1.8171639579    -2.0067273926    -1.3868973013 
| 10>  O       -1.4580732825    -2.8204877682    -2.4699097098 
| 11>  C       -0.9945668933    -2.0631183846    -0.0723913013 
| 12>  C       -2.2738761956    -0.1137938574     0.9416308466 
| 13>  O       -2.2578127018     0.8098423654     1.7228108116 
| 14>  H       -0.6606212771     1.9441938408     0.8581433916 
| 15>  H        0.9612988133    -0.0561430290    -0.2457698722 
| 16>  H        0.4372816254     0.0302231187     1.4430232183 
| 17>  H       -2.4104869406     0.1638713672    -1.7359959896 
| 18>  H       -0.7160923493    -0.2239661446    -2.0870549351 
| 19>  H       -2.8717047911    -2.2291756173    -1.1980870649 
| 20>  H       -0.5374328973    -2.6414810034    -2.6899977152 
| 21>  H        0.0481666501    -2.3407195839    -0.2615204547 
| 22>  H       -1.3747934806    -2.6815868510     0.7447293097 
| 23>  H       -3.1917729310    -0.7358370540     0.8347109522 
| 24> *
| 25> 
| 26>                          ****END OF INPUT****
================================================================================

                       ****************************
                       * Single Point Calculation *
                       ****************************

---------------------------------
CARTESIAN COORDINATES (ANGSTROEM)
---------------------------------
  O      0.000170    1.660568    0.213446
  C      0.144537    0.270071    0.408210
  C     -1.123052   -0.506954    0.052690
  C     -1.572756   -0.478018   -1.454769
  C     -1.817164   -2.006727   -1.386897
  O     -1.458073   -2.820488   -2.469910
  C     -0.994567   -2.063118   -0.072391
  C     -2.273876   -0.113794    0.941631
  O     -2.257813    0.809842    1.722811
  H     -0.660621    1.944194    0.858143
  H      0.961299   -0.056143   -0.245770
  H      0.437282    0.030223    1.443023
  H     -2.410487    0.163871   -1.735996
  H     -0.716092   -0.223966   -2.087055
  H     -2.871705   -2.229176   -1.198087
  H     -0.537433   -2.641481   -2.689998
  H      0.048167   -2.340720   -0.261520
  H     -1.374793   -2.681587    0.744729
  H     -3.191773   -0.735837    0.834711

----------------------------
CARTESIAN COORDINATES (A.U.)
----------------------------
  NO LB      ZA    FRAG    MASS        X           Y           Z
   0 O     8.0000    0    15.999          0.000320568983961          3.138019198208919          0.403354245708545
   1 C     6.0000    0    12.011          0.273135290471655          0.510360055694031          0.771404946202026
   2 C     6.0000    0    12.011         -2.122260149124416         -0.958004111946935          0.099569701554737
   3 C     6.0000    0    12.011         -2.972079038045751         -0.903322186410196         -2.749115531399200
   4 C     6.0000    0    12.011         -3.433942220863407         -3.792165197451872         -2.620856075331467
   5 O     8.0000    0    15.999         -2.755359187112594         -5.329949445972765         -4.667452927034915
   6 C     6.0000    0    12.011         -1.879459050201879         -3.898728728752016         -0.136799733935177
   7 C     6.0000    0    12.011         -4.297003272126752         -0.215039226208488          1.779424419326413
   8 O     8.0000    0    15.999         -4.266647668090809          1.530380282252984          3.255640614482602
   9 H     1.0000    0     1.008         -1.248393291960303          3.673993910368493          1.621655993758339
  10 H     1.0000    0     1.008          1.816591490000496         -0.106094949138799         -0.464437750426826
  11 H     1.0000    0     1.008          0.826342515401943          0.057113417255994          2.726918687476661
  12 H     1.0000    0     1.008         -4.555160167127704          0.309672005199246         -3.280556989929605
  13 H     1.0000    0     1.008         -1.353218426773275         -0.423234676564206         -3.943962253787792
  14 H     1.0000    0     1.008         -5.426735592648539         -4.212531421111849         -2.264056437254537
  15 H     1.0000    0     1.008         -1.015600991256826         -4.991675684381510         -5.083358982601896
  16 H     1.0000    0     1.008          0.091021777477411         -4.423318969877108         -0.494202037801559
  17 H     1.0000    0     1.008         -2.597983169034379         -5.067464752714294          1.407334439237223
  18 H     1.0000    0     1.008         -6.031576721253132         -1.390530511251423          1.577375100642633

--------------------------------
INTERNAL COORDINATES (ANGSTROEM)
--------------------------------
 O      0   0   0   0.000000     0.000     0.000
 C      1   0   0   1.411474     0.000     0.000
 C      2   1   0   1.528706   112.571     0.000
 C      3   2   1   1.573374   116.774    64.689
 C      4   3   2   1.549611    89.139   134.780
 O      5   4   3   1.401452   119.905   219.999
 C      5   4   3   1.551700    89.389   344.615
 C      3   2   1   1.506382   111.320   297.214
 O      8   3   2   1.209795   124.762     8.685
 H      1   2   3   0.965776   105.497    65.757
 H      2   1   3   1.095995   106.685   119.687
 H      2   1   3   1.101846   111.790   236.715
 H      4   3   2   1.092201   118.472   256.561
 H      4   3   2   1.094624   109.512    21.487
 H      5   4   3   1.094161   111.108    96.884
 H      6   5   4   0.963359   108.271    52.566
 H      7   5   4   1.095502   111.565   264.061
 H      7   5   4   1.093052   117.998   137.485
 H      8   3   2   1.113959   115.285   188.003

---------------------------
INTERNAL COORDINATES (A.U.)
---------------------------
 O      0   0   0   0.000000     0.000     0.000
 C      1   0   0   2.667299     0.000     0.000
 C      2   1   0   2.888836   112.571     0.000
 C      3   2   1   2.973246   116.774    64.689
 C      4   3   2   2.928341    89.139   134.780
 O      5   4   3   2.648361   119.905   219.999
 C      5   4   3   2.932287    89.389   344.615
 C      3   2   1   2.846650   111.320   297.214
 O      8   3   2   2.286181   124.762     8.685
 H      1   2   3   1.825052   105.497    65.757
 H      2   1   3   2.071130   106.685   119.687
 H      2   1   3   2.082187   111.790   236.715
 H      4   3   2   2.063960   118.472   256.561
 H      4   3   2   2.068539   109.512    21.487
 H      5   4   3   2.067665   111.108    96.884
 H      6   5   4   1.820485   108.271    52.566
 H      7   5   4   2.070200   111.565   264.061
 H      7   5   4   2.065568   117.998   137.485
 H      8   3   2   2.105077   115.285   188.003

---------------------
BASIS SET INFORMATION
---------------------
There are 3 groups of distinct atoms

 Group   1 Type O   : 11s6p2d1f contracted to 5s3p2d1f pattern {62111/411/11/1}
 Group   2 Type C   : 11s6p2d1f contracted to 5s3p2d1f pattern {62111/411/11/1}
 Group   3 Type H   : 5s1p contracted to 3s1p pattern {311/1}

Atom   0O    basis set group =>   1
Atom   1C    basis set group =>   2
Atom   2C    basis set group =>   2
Atom   3C    basis set group =>   2
Atom   4C    basis set group =>   2
Atom   5O    basis set group =>   1
Atom   6C    basis set group =>   2
Atom   7C    basis set group =>   2
Atom   8O    basis set group =>   1
Atom   9H    basis set group =>   3
Atom  10H    basis set group =>   3
Atom  11H    basis set group =>   3
Atom  12H    basis set group =>   3
Atom  13H    basis set group =>   3
Atom  14H    basis set group =>   3
Atom  15H    basis set group =>   3
Atom  16H    basis set group =>   3
Atom  17H    basis set group =>   3
Atom  18H    basis set group =>   3
-------------------------------
AUXILIARY BASIS SET INFORMATION
-------------------------------
There are 3 groups of distinct atoms

 Group   1 Type O   : 14s10p6d2f1g contracted to 10s8p4d2f1g pattern {5111111111/31111111/3111/11/1}
 Group   2 Type C   : 14s10p6d2f1g contracted to 10s8p5d1f1g pattern {5111111111/31111111/21111/2/1}
 Group   3 Type H   : 4s2p2d contracted to 2s2p2d pattern {31/11/11}

Atom   0O    basis set group =>   1
Atom   1C    basis set group =>   2
Atom   2C    basis set group =>   2
Atom   3C    basis set group =>   2
Atom   4C    basis set group =>   2
Atom   5O    basis set group =>   1
Atom   6C    basis set group =>   2
Atom   7C    basis set group =>   2
Atom   8O    basis set group =>   1
Atom   9H    basis set group =>   3
Atom  10H    basis set group =>   3
Atom  11H    basis set group =>   3
Atom  12H    basis set group =>   3
Atom  13H    basis set group =>   3
Atom  14H    basis set group =>   3
Atom  15H    basis set group =>   3
Atom  16H    basis set group =>   3
Atom  17H    basis set group =>   3
Atom  18H    basis set group =>   3
------------------------------------------------------------------------------
                           ORCA GTO INTEGRAL CALCULATION
                           -- RI-GTO INTEGRALS CHOSEN --
------------------------------------------------------------------------------

                         BASIS SET STATISTICS AND STARTUP INFO

Gaussian basis set:
 # of primitive gaussian shells          ...  240
 # of primitive gaussian functions       ...  494
 # of contracted shells                  ...  139
 # of contracted basis functions         ...  339
 Highest angular momentum                ...    3
 Maximum contraction depth               ...    6
Auxiliary gaussian basis set:
 # of primitive gaussian shells          ...  377
 # of primitive gaussian functions       ... 1073
 # of contracted shells                  ...  285
 # of contracted aux-basis functions     ...  861
 Highest angular momentum                ...    4
 Maximum contraction depth               ...    5
Ratio of auxiliary to basis functions    ...  2.54
Integral package used                  ... LIBINT
 One Electron integrals                  ... done
 Ordering auxiliary basis shells         ... done
 Integral threshhold             Thresh  ...  2.500e-11
 Primitive cut-off               TCut    ...  2.500e-12
 Pre-screening matrix                    ... done
 Shell pair data                         ... 
 Ordering of the shell pairs             ... done (   0.002 sec) 8860 of 9730 pairs
 Determination of significant pairs      ... done (   0.000 sec)
 Creation of shell pair data             ... done (   0.002 sec)
 Storage of shell pair data              ... done (   0.002 sec)
 Shell pair data done in (   0.005 sec)
 Computing two index integrals           ... done
 Cholesky decomposition of the V-matrix  ... done


Timings:
 Total evaluation time                   ...   0.403 sec (  0.007 min)
 One electron matrix time                ...   0.093 sec (  0.002 min) = 23.0%
 Schwartz matrix evaluation time         ...   0.220 sec (  0.004 min) = 54.5%
 Two index repulsion integral time       ...   0.022 sec (  0.000 min) =  5.5%
 Cholesky decomposition of V             ...   0.035 sec (  0.001 min) =  8.8%
 Three index repulsion integral time     ...   0.000 sec (  0.000 min) =  0.0%

-------------------------------------------------------------------------------
                                 ORCA SCF
-------------------------------------------------------------------------------

------------
SCF SETTINGS
------------
Hamiltonian:
 Ab initio Hamiltonian  Method          .... Hartree-Fock(GTOs)
 RI-approximation to the Coulomb term is turned on
   Number of auxiliary basis functions  .... 861
   RI-JK (J+K treated both via RI)      .... on


General Settings:
 Integral files         IntName         .... dsgdb9nsd_104654
 Hartree-Fock type      HFTyp           .... RHF
 Total Charge           Charge          ....    0
 Multiplicity           Mult            ....    1
 Number of Electrons    NEL             ....   70
 Basis Dimension        Dim             ....  339
 Nuclear Repulsion      ENuc            ....    473.5931684487 Eh

Convergence Acceleration:
 DIIS                   CNVDIIS         .... on
   Start iteration      DIISMaxIt       ....    12
   Startup error        DIISStart       ....  0.200000
   # of expansion vecs  DIISMaxEq       ....     5
   Bias factor          DIISBfac        ....   1.050
   Max. coefficient     DIISMaxC        ....  10.000
 Newton-Raphson         CNVNR           .... off
 SOSCF                  CNVSOSCF        .... on
   Start iteration      SOSCFMaxIt      ....   150
   Startup grad/error   SOSCFStart      ....  0.003300
 Level Shifting         CNVShift        .... on
   Level shift para.    LevelShift      ....    0.2500
   Turn off err/grad.   ShiftErr        ....    0.0010
 Zerner damping         CNVZerner       .... off
 Static damping         CNVDamp         .... on
   Fraction old density DampFac         ....    0.7000
   Max. Damping (<1)    DampMax         ....    0.9800
   Min. Damping (>=0)   DampMin         ....    0.0000
   Turn off err/grad.   DampErr         ....    0.1000
 Fernandez-Rico         CNVRico         .... off

SCF Procedure:
 Maximum # iterations   MaxIter         ....   125
 SCF integral mode      SCFMode         .... Direct
   Integral package                     .... LIBINT
 Reset frequeny         DirectResetFreq ....    20
 Integral Threshold     Thresh          ....  2.500e-11 Eh
 Primitive CutOff       TCut            ....  2.500e-12 Eh

Convergence Tolerance:
 Convergence Check Mode ConvCheckMode   .... Total+1el-Energy
 Energy Change          TolE            ....  1.000e-08 Eh
 1-El. energy change                    ....  1.000e-05 Eh
 Orbital Gradient       TolG            ....  1.000e-05
 Orbital Rotation angle TolX            ....  1.000e-05
 DIIS Error             TolErr          ....  5.000e-07


Diagonalization of the overlap matrix:
Smallest eigenvalue                        ... 2.857e-05
Time for diagonalization                   ...    0.034 sec
Threshold for overlap eigenvalues          ... 1.000e-08
Number of eigenvalues below threshold      ... 0
Time for construction of square roots      ...    0.018 sec
Total time needed                          ...    0.052 sec

-------------------
DFT GRID GENERATION
-------------------

General Integration Accuracy     IntAcc      ...  4.340
Radial Grid Type                 RadialGrid  ... Gauss-Chebyshev
Angular Grid (max. acc.)         AngularGrid ... Lebedev-110
Angular grid pruning method      GridPruning ... 3 (G Style)
Weight generation scheme         WeightScheme... Becke
Basis function cutoff            BFCut       ...    1.0000e-11
Integration weight cutoff        WCut        ...    1.0000e-14
Grids for H and He will be reduced by one unit

# of grid points (after initial pruning)     ...  23024 (   0.0 sec)
# of grid points (after weights+screening)   ...  21036 (   0.1 sec)
nearest neighbour list constructed           ...    0.0 sec
Grid point re-assignment to atoms done       ...    0.0 sec
Grid point division into batches done        ...    0.0 sec
Reduced shell lists constructed in    1.3 sec

Total number of grid points                  ...    21036
Total number of batches                      ...      340
Average number of points per batch           ...       61
Average number of grid points per atom       ...     1107
Average number of shells per batch           ...    94.15 (67.73%)
Average number of basis functions per batch  ...   233.45 (68.87%)
Average number of large shells per batch     ...    73.00 (77.54%)
Average number of large basis fcns per batch ...   178.37 (76.41%)
Average number of aux-shells per batch       ...    94.15 (33.03%)
Average number of aux functions per batch    ...   233.45 (  inf%)
Maximum spatial batch extension              ...  21.46, 19.62, 19.88 au
Average spatial batch extension              ...   3.59,  3.70,  3.63 au

Time for grid setup =    1.462 sec

------------------------------
INITIAL GUESS: MODEL POTENTIAL
------------------------------
Loading Hartree-Fock densities                     ... done
Calculating cut-offs                               ... done
Setting up the integral package                    ... done
Initializing the effective Hamiltonian             ... done
Starting the Coulomb interaction                   ... done (   0.7 sec)
Reading the grid                                   ... done
Mapping shells                                     ... done
Starting the XC term evaluation                    ... done (   0.7 sec)
Transforming the Hamiltonian                       ... done (   0.0 sec)
Diagonalizing the Hamiltonian                      ... done (   0.0 sec)
Back transforming the eigenvectors                 ... done (   0.0 sec)
Now organizing SCF variables                       ... done
                      ------------------
                      INITIAL GUESS DONE (   3.1 sec)
                      ------------------
--------------
SCF ITERATIONS
--------------
ITER       Energy         Delta-E        Max-DP      RMS-DP      [F,P]     Damp
  0   -457.3630219479   0.000000000000 0.04032949  0.00095607  0.2886959 0.7000
  1   -457.1449492436   0.218072704302 0.03581851  0.00097067  0.2526799 0.7000
                               ***Turning on DIIS***
  2   -457.1835187682  -0.038569524595 0.02425183  0.00068544  0.1855303 0.7000
  3   -458.2916415980  -1.108122829824 0.01447622  0.00037459  0.1318076 0.7000
  4   -457.6495413304   0.642100267663 0.06194443  0.00098428  0.0862337 0.0000
  5   -457.8354991493  -0.185957818965 0.01277222  0.00023441  0.0272322 0.0000
  6   -457.6859746931   0.149524456230 0.00571393  0.00011489  0.0102789 0.0000
  7   -457.6913204160  -0.005345722874 0.00285791  0.00005851  0.0069245 0.0000
  8   -457.6890080097   0.002312406315 0.00162480  0.00004883  0.0042164 0.0000
                      *** Initiating the SOSCF procedure ***
                           *** Shutting down DIIS ***
                      *** Re-Reading the Fockian *** 
                      *** Removing any level shift *** 
ITER      Energy       Delta-E        Grad      Rot      Max-DP    RMS-DP
  9   -457.74689323  -0.0578852189  0.000326  0.000326  0.000879  0.000015
 10   -457.74757959  -0.0006863662  0.000204  0.000304  0.000331  0.000005
 11   -457.74758050  -0.0000009028  0.000064  0.000275  0.000571  0.000007
 12   -457.74758094  -0.0000004421  0.000011  0.000036  0.000058  0.000001
 13   -457.74758095  -0.0000000145  0.000008  0.000009  0.000029  0.000001
                  ***Gradient check signals convergence***
              ***Rediagonalizing the Fockian in SOSCF/NRSCF***

               *****************************************************
               *                     SUCCESS                       *
               *           SCF CONVERGED AFTER  14 CYCLES          *
               *****************************************************


----------------
TOTAL SCF ENERGY
----------------

Total Energy       :         -457.74758096 Eh          -12455.94493 eV

Components:
Nuclear Repulsion  :          473.59316845 Eh           12887.12528 eV
Electronic Energy  :         -931.34074941 Eh          -25343.07021 eV

One Electron Energy:        -1565.17963559 Eh          -42590.70315 eV
Two Electron Energy:          633.83888619 Eh           17247.63295 eV

Virial components:
Potential Energy   :         -914.92399116 Eh          -24896.34751 eV
Kinetic Energy     :          457.17641021 Eh           12440.40258 eV
Virial Ratio       :            2.00124934


---------------
SCF CONVERGENCE
---------------

  Last Energy change         ...   -2.5315e-09  Tolerance :   1.0000e-08
  Last MAX-Density change    ...    6.9669e-06  Tolerance :   1.0000e-07
  Last RMS-Density change    ...    1.1224e-07  Tolerance :   5.0000e-09
  Last Orbital Gradient      ...    2.0776e-06  Tolerance :   1.0000e-05
  Last Orbital Rotation      ...    1.5659e-06  Tolerance :   1.0000e-05

             **** THE GBW FILE WAS UPDATED (dsgdb9nsd_104654.gbw) ****
             **** DENSITY FILE WAS UPDATED (dsgdb9nsd_104654.scfp.tmp) ****
             **** ENERGY FILE WAS UPDATED (dsgdb9nsd_104654.en.tmp) ****
----------------
ORBITAL ENERGIES
----------------

  NO   OCC          E(Eh)            E(eV) 
   0   2.0000     -20.573344      -559.8292 
   1   2.0000     -20.572971      -559.8190 
   2   2.0000     -20.551349      -559.2306 
   3   2.0000     -11.347621      -308.7845 
   4   2.0000     -11.301227      -307.5220 
   5   2.0000     -11.284558      -307.0684 
   6   2.0000     -11.262294      -306.4626 
   7   2.0000     -11.251292      -306.1632 
   8   2.0000     -11.248010      -306.0739 
   9   2.0000      -1.413557       -38.4648 
  10   2.0000      -1.382525       -37.6204 
  11   2.0000      -1.359374       -36.9905 
  12   2.0000      -1.160161       -31.5696 
  13   2.0000      -0.986764       -26.8512 
  14   2.0000      -0.933514       -25.4022 
  15   2.0000      -0.902069       -24.5465 
  16   2.0000      -0.841276       -22.8923 
  17   2.0000      -0.770352       -20.9624 
  18   2.0000      -0.706839       -19.2341 
  19   2.0000      -0.684401       -18.6235 
  20   2.0000      -0.683141       -18.5892 
  21   2.0000      -0.670190       -18.2368 
  22   2.0000      -0.631310       -17.1788 
  23   2.0000      -0.613787       -16.7020 
  24   2.0000      -0.595598       -16.2070 
  25   2.0000      -0.587100       -15.9758 
  26   2.0000      -0.575994       -15.6736 
  27   2.0000      -0.555425       -15.1139 
  28   2.0000      -0.538572       -14.6553 
  29   2.0000      -0.514208       -13.9923 
  30   2.0000      -0.488544       -13.2940 
  31   2.0000      -0.468676       -12.7533 
  32   2.0000      -0.439786       -11.9672 
  33   2.0000      -0.431021       -11.7287 
  34   2.0000      -0.424149       -11.5417 
  35   0.0000       0.113952         3.1008 
  36   0.0000       0.120151         3.2695 
  37   0.0000       0.138354         3.7648 
  38   0.0000       0.157305         4.2805 
  39   0.0000       0.170993         4.6530 
  40   0.0000       0.182634         4.9697 
  41   0.0000       0.199796         5.4367 
  42   0.0000       0.210931         5.7397 
  43   0.0000       0.212610         5.7854 
  44   0.0000       0.217847         5.9279 
  45   0.0000       0.229097         6.2340 
  46   0.0000       0.241376         6.5682 
  47   0.0000       0.258688         7.0393 
  48   0.0000       0.274746         7.4762 
  49   0.0000       0.282181         7.6785 
  50   0.0000       0.299324         8.1450 
  51   0.0000       0.332609         9.0507 
  52   0.0000       0.341351         9.2886 
  53   0.0000       0.353778         9.6268 
  54   0.0000       0.367940        10.0122 
  55   0.0000       0.381304        10.3758 
  56   0.0000       0.401946        10.9375 
  57   0.0000       0.411228        11.1901 
  58   0.0000       0.434259        11.8168 
  59   0.0000       0.443137        12.0584 
  60   0.0000       0.455922        12.4063 
  61   0.0000       0.471857        12.8399 
  62   0.0000       0.478596        13.0232 
  63   0.0000       0.492785        13.4094 
  64   0.0000       0.509041        13.8517 
  65   0.0000       0.515330        14.0228 
  66   0.0000       0.524112        14.2618 
  67   0.0000       0.538257        14.6467 
  68   0.0000       0.545798        14.8519 
  69   0.0000       0.552681        15.0392 
  70   0.0000       0.558955        15.2099 
  71   0.0000       0.572970        15.5913 
  72   0.0000       0.576341        15.6830 
  73   0.0000       0.589913        16.0523 
  74   0.0000       0.595902        16.2153 
  75   0.0000       0.602520        16.3954 
  76   0.0000       0.609179        16.5766 
  77   0.0000       0.617369        16.7995 
  78   0.0000       0.629665        17.1341 
  79   0.0000       0.639914        17.4129 
  80   0.0000       0.654085        17.7986 
  81   0.0000       0.664824        18.0908 
  82   0.0000       0.671090        18.2613 
  83   0.0000       0.683094        18.5879 
  84   0.0000       0.694829        18.9072 
  85   0.0000       0.712535        19.3891 
  86   0.0000       0.731990        19.9185 
  87   0.0000       0.757284        20.6067 
  88   0.0000       0.761869        20.7315 
  89   0.0000       0.770830        20.9754 
  90   0.0000       0.805952        21.9311 
  91   0.0000       0.821219        22.3465 
  92   0.0000       0.823883        22.4190 
  93   0.0000       0.848001        23.0753 
  94   0.0000       0.860053        23.4032 
  95   0.0000       0.870151        23.6780 
  96   0.0000       0.900729        24.5101 
  97   0.0000       0.947221        25.7752 
  98   0.0000       0.960941        26.1485 
  99   0.0000       1.011720        27.5303 
 100   0.0000       1.016327        27.6557 
 101   0.0000       1.042074        28.3563 
 102   0.0000       1.051873        28.6229 
 103   0.0000       1.063384        28.9361 
 104   0.0000       1.087625        29.5958 
 105   0.0000       1.102075        29.9890 
 106   0.0000       1.121941        30.5296 
 107   0.0000       1.130317        30.7575 
 108   0.0000       1.160819        31.5875 
 109   0.0000       1.181544        32.1514 
 110   0.0000       1.188917        32.3521 
 111   0.0000       1.207902        32.8687 
 112   0.0000       1.221545        33.2399 
 113   0.0000       1.240489        33.7554 
 114   0.0000       1.246770        33.9263 
 115   0.0000       1.269576        34.5469 
 116   0.0000       1.313163        35.7330 
 117   0.0000       1.329962        36.1901 
 118   0.0000       1.346370        36.6366 
 119   0.0000       1.369742        37.2726 
 120   0.0000       1.373996        37.3883 
 121   0.0000       1.399701        38.0878 
 122   0.0000       1.437553        39.1178 
 123   0.0000       1.445411        39.3316 
 124   0.0000       1.479605        40.2621 
 125   0.0000       1.504688        40.9447 
 126   0.0000       1.521878        41.4124 
 127   0.0000       1.543532        42.0017 
 128   0.0000       1.576183        42.8901 
 129   0.0000       1.584241        43.1094 
 130   0.0000       1.614342        43.9285 
 131   0.0000       1.627524        44.2872 
 132   0.0000       1.677185        45.6385 
 133   0.0000       1.704341        46.3775 
 134   0.0000       1.731770        47.1239 
 135   0.0000       1.755437        47.7679 
 136   0.0000       1.761427        47.9309 
 137   0.0000       1.775523        48.3144 
 138   0.0000       1.797270        48.9062 
 139   0.0000       1.819393        49.5082 
 140   0.0000       1.847159        50.2638 
 141   0.0000       1.858772        50.5798 
 142   0.0000       1.865876        50.7731 
 143   0.0000       1.880266        51.1646 
 144   0.0000       1.912786        52.0495 
 145   0.0000       1.925672        52.4002 
 146   0.0000       1.936394        52.6919 
 147   0.0000       1.957888        53.2768 
 148   0.0000       1.990145        54.1546 
 149   0.0000       2.019116        54.9429 
 150   0.0000       2.027729        55.1773 
 151   0.0000       2.037726        55.4493 
 152   0.0000       2.047590        55.7178 
 153   0.0000       2.055894        55.9437 
 154   0.0000       2.082177        56.6589 
 155   0.0000       2.101250        57.1779 
 156   0.0000       2.134383        58.0795 
 157   0.0000       2.165110        58.9156 
 158   0.0000       2.172267        59.1104 
 159   0.0000       2.203583        59.9625 
 160   0.0000       2.208850        60.1059 
 161   0.0000       2.242703        61.0271 
 162   0.0000       2.254724        61.3542 
 163   0.0000       2.278337        61.9967 
 164   0.0000       2.302618        62.6574 
 165   0.0000       2.327228        63.3271 
 166   0.0000       2.339210        63.6532 
 167   0.0000       2.375000        64.6270 
 168   0.0000       2.394271        65.1514 
 169   0.0000       2.411872        65.6304 
 170   0.0000       2.430069        66.1255 
 171   0.0000       2.460761        66.9607 
 172   0.0000       2.473431        67.3055 
 173   0.0000       2.482934        67.5641 
 174   0.0000       2.520142        68.5765 
 175   0.0000       2.537414        69.0466 
 176   0.0000       2.548069        69.3365 
 177   0.0000       2.562416        69.7269 
 178   0.0000       2.580470        70.2181 
 179   0.0000       2.604293        70.8664 
 180   0.0000       2.615865        71.1813 
 181   0.0000       2.654706        72.2382 
 182   0.0000       2.660469        72.3950 
 183   0.0000       2.668913        72.6248 
 184   0.0000       2.694069        73.3094 
 185   0.0000       2.712374        73.8074 
 186   0.0000       2.731173        74.3190 
 187   0.0000       2.747957        74.7757 
 188   0.0000       2.761226        75.1368 
 189   0.0000       2.792517        75.9882 
 190   0.0000       2.797663        76.1283 
 191   0.0000       2.809325        76.4456 
 192   0.0000       2.841089        77.3100 
 193   0.0000       2.866702        78.0069 
 194   0.0000       2.892914        78.7202 
 195   0.0000       2.902889        78.9916 
 196   0.0000       2.933299        79.8191 
 197   0.0000       2.943642        80.1006 
 198   0.0000       2.962218        80.6060 
 199   0.0000       2.963918        80.6523 
 200   0.0000       2.973819        80.9217 
 201   0.0000       2.995543        81.5129 
 202   0.0000       3.011239        81.9400 
 203   0.0000       3.051172        83.0266 
 204   0.0000       3.077094        83.7320 
 205   0.0000       3.104136        84.4678 
 206   0.0000       3.109724        84.6199 
 207   0.0000       3.127541        85.1047 
 208   0.0000       3.160654        86.0058 
 209   0.0000       3.181577        86.5751 
 210   0.0000       3.198375        87.0322 
 211   0.0000       3.215797        87.5063 
 212   0.0000       3.220471        87.6335 
 213   0.0000       3.244269        88.2810 
 214   0.0000       3.265391        88.8558 
 215   0.0000       3.299087        89.7727 
 216   0.0000       3.304124        89.9098 
 217   0.0000       3.333342        90.7048 
 218   0.0000       3.347363        91.0864 
 219   0.0000       3.362305        91.4930 
 220   0.0000       3.363566        91.5273 
 221   0.0000       3.386996        92.1648 
 222   0.0000       3.404248        92.6343 
 223   0.0000       3.438468        93.5655 
 224   0.0000       3.453134        93.9646 
 225   0.0000       3.475758        94.5802 
 226   0.0000       3.491602        95.0113 
 227   0.0000       3.507889        95.4545 
 228   0.0000       3.529838        96.0518 
 229   0.0000       3.538481        96.2870 
 230   0.0000       3.564021        96.9819 
 231   0.0000       3.579999        97.4167 
 232   0.0000       3.603910        98.0674 
 233   0.0000       3.618427        98.4624 
 234   0.0000       3.637679        98.9863 
 235   0.0000       3.640527        99.0638 
 236   0.0000       3.663300        99.6835 
 237   0.0000       3.672434        99.9320 
 238   0.0000       3.699662       100.6729 
 239   0.0000       3.704429       100.8026 
 240   0.0000       3.733589       101.5961 
 241   0.0000       3.757387       102.2437 
 242   0.0000       3.775748       102.7433 
 243   0.0000       3.815105       103.8143 
 244   0.0000       3.820028       103.9482 
 245   0.0000       3.834132       104.3320 
 246   0.0000       3.856797       104.9488 
 247   0.0000       3.879565       105.5683 
 248   0.0000       3.915896       106.5570 
 249   0.0000       3.956038       107.6493 
 250   0.0000       3.986293       108.4726 
 251   0.0000       3.989182       108.5512 
 252   0.0000       4.015025       109.2544 
 253   0.0000       4.052122       110.2638 
 254   0.0000       4.072233       110.8111 
 255   0.0000       4.080150       111.0265 
 256   0.0000       4.113900       111.9449 
 257   0.0000       4.125831       112.2696 
 258   0.0000       4.187556       113.9492 
 259   0.0000       4.197317       114.2148 
 260   0.0000       4.228796       115.0714 
 261   0.0000       4.269640       116.1828 
 262   0.0000       4.291941       116.7896 
 263   0.0000       4.322476       117.6206 
 264   0.0000       4.353685       118.4698 
 265   0.0000       4.357788       118.5814 
 266   0.0000       4.382457       119.2527 
 267   0.0000       4.422725       120.3485 
 268   0.0000       4.468126       121.5839 
 269   0.0000       4.491039       122.2074 
 270   0.0000       4.514563       122.8475 
 271   0.0000       4.556187       123.9801 
 272   0.0000       4.568725       124.3213 
 273   0.0000       4.585979       124.7908 
 274   0.0000       4.614804       125.5752 
 275   0.0000       4.619167       125.6939 
 276   0.0000       4.637114       126.1823 
 277   0.0000       4.673598       127.1751 
 278   0.0000       4.747621       129.1893 
 279   0.0000       4.762006       129.5808 
 280   0.0000       4.799571       130.6030 
 281   0.0000       4.841737       131.7504 
 282   0.0000       4.855945       132.1370 
 283   0.0000       4.908317       133.5621 
 284   0.0000       4.992355       135.8489 
 285   0.0000       5.080650       138.2515 
 286   0.0000       5.110852       139.0733 
 287   0.0000       5.191020       141.2548 
 288   0.0000       5.262958       143.2124 
 289   0.0000       5.269841       143.3997 
 290   0.0000       5.282761       143.7512 
 291   0.0000       5.334852       145.1687 
 292   0.0000       5.364204       145.9674 
 293   0.0000       5.543016       150.8331 
 294   0.0000       5.624038       153.0379 
 295   0.0000       5.631893       153.2516 
 296   0.0000       5.708580       155.3384 
 297   0.0000       5.743608       156.2915 
 298   0.0000       5.816200       158.2669 
 299   0.0000       5.846358       159.0875 
 300   0.0000       5.925192       161.2327 
 301   0.0000       5.932015       161.4183 
 302   0.0000       5.998698       163.2329 
 303   0.0000       6.101449       166.0289 
 304   0.0000       6.201938       168.7633 
 305   0.0000       6.261021       170.3711 
 306   0.0000       6.273758       170.7176 
 307   0.0000       6.300337       171.4409 
 308   0.0000       6.425103       174.8360 
 309   0.0000       6.441507       175.2823 
 310   0.0000       6.587261       179.2485 
 311   0.0000       6.788887       184.7350 
 312   0.0000       6.807686       185.2466 
 313   0.0000       6.840201       186.1313 
 314   0.0000       6.880868       187.2379 
 315   0.0000       6.911719       188.0774 
 316   0.0000       6.975487       189.8127 
 317   0.0000       6.987215       190.1318 
 318   0.0000       7.014282       190.8683 
 319   0.0000       7.214377       196.3132 
 320   0.0000       7.245540       197.1612 
 321   0.0000       7.299200       198.6213 
 322   0.0000       7.315915       199.0762 
 323   0.0000       7.331630       199.5038 
 324   0.0000       7.481507       203.5822 
 325   0.0000       7.502330       204.1488 
 326   0.0000       7.518357       204.5849 
 327   0.0000       7.583609       206.3605 
 328   0.0000       7.658380       208.3951 
 329   0.0000       7.678477       208.9420 
 330   0.0000      23.474724       638.7797 
 331   0.0000      23.592319       641.9796 
 332   0.0000      23.663599       643.9193 
 333   0.0000      23.714362       645.3006 
 334   0.0000      23.858918       649.2342 
 335   0.0000      24.015132       653.4850 
 336   0.0000      45.415976      1235.8315 
 337   0.0000      45.427490      1236.1448 
 338   0.0000      45.506667      1238.2994 

                    ********************************
                    * MULLIKEN POPULATION ANALYSIS *
                    ********************************

-----------------------
MULLIKEN ATOMIC CHARGES
-----------------------
   0 O :   -0.560277
   1 C :    0.067013
   2 C :    0.242811
   3 C :   -0.249484
   4 C :    0.100418
   5 O :   -0.514862
   6 C :   -0.266795
   7 C :    0.123826
   8 O :   -0.448625
   9 H :    0.355623
  10 H :    0.078847
  11 H :    0.093554
  12 H :    0.120047
  13 H :    0.113174
  14 H :    0.088299
  15 H :    0.322430
  16 H :    0.106962
  17 H :    0.120378
  18 H :    0.106661
Sum of atomic charges:   -0.0000000

--------------------------------
MULLIKEN REDUCED ORBITAL CHARGES
--------------------------------
  0 O s       :     3.802704  s :     3.802704
      pz      :     1.688272  p :     4.722108
      px      :     1.688916
      py      :     1.344920
      dz2     :     0.004281  d :     0.033692
      dxz     :     0.008395
      dyz     :     0.005969
      dx2y2   :     0.011144
      dxy     :     0.003902
      f0      :     0.000150  f :     0.001773
      f+1     :     0.000275
      f-1     :     0.000224
      f+2     :     0.000313
      f-2     :     0.000220
      f+3     :     0.000216
      f-3     :     0.000375
  1 C s       :     3.163132  s :     3.163132
      pz      :     0.997554  p :     2.616261
      px      :     0.931830
      py      :     0.686877
      dz2     :     0.021128  d :     0.142378
      dxz     :     0.019034
      dyz     :     0.033322
      dx2y2   :     0.028431
      dxy     :     0.040463
      f0      :     0.001626  f :     0.011215
      f+1     :     0.000862
      f-1     :     0.001167
      f+2     :     0.001825
      f-2     :     0.000695
      f+3     :     0.002891
      f-3     :     0.002149
  2 C s       :     2.886341  s :     2.886341
      pz      :     0.939877  p :     2.709474
      px      :     0.836044
      py      :     0.933553
      dz2     :     0.029130  d :     0.150899
      dxz     :     0.040041
      dyz     :     0.020884
      dx2y2   :     0.037372
      dxy     :     0.023471
      f0      :     0.001746  f :     0.010476
      f+1     :     0.001541
      f-1     :     0.001302
      f+2     :     0.001426
      f-2     :     0.001222
      f+3     :     0.001578
      f-3     :     0.001661
  3 C s       :     3.216009  s :     3.216009
      pz      :     0.932214  p :     2.941883
      px      :     1.072233
      py      :     0.937436
      dz2     :     0.021048  d :     0.084879
      dxz     :     0.017465
      dyz     :     0.014989
      dx2y2   :     0.015006
      dxy     :     0.016371
      f0      :     0.001423  f :     0.006713
      f+1     :     0.000962
      f-1     :     0.001188
      f+2     :     0.000717
      f-2     :     0.000410
      f+3     :     0.000686
      f-3     :     0.001326
  4 C s       :     3.168082  s :     3.168082
      pz      :     0.741431  p :     2.553777
      px      :     1.000225
      py      :     0.812121
      dz2     :     0.046090  d :     0.163961
      dxz     :     0.027308
      dyz     :     0.032255
      dx2y2   :     0.041110
      dxy     :     0.017198
      f0      :     0.002633  f :     0.013763
      f+1     :     0.001787
      f-1     :     0.002631
      f+2     :     0.002421
      f-2     :     0.001794
      f+3     :     0.001300
      f-3     :     0.001198
  5 O s       :     3.784488  s :     3.784488
      pz      :     1.576661  p :     4.694504
      px      :     1.400525
      py      :     1.717318
      dz2     :     0.007568  d :     0.034017
      dxz     :     0.002978
      dyz     :     0.009425
      dx2y2   :     0.009931
      dxy     :     0.004116
      f0      :     0.000199  f :     0.001852
      f+1     :     0.000265
      f-1     :     0.000398
      f+2     :     0.000320
      f-2     :     0.000220
      f+3     :     0.000279
      f-3     :     0.000172
  6 C s       :     3.229017  s :     3.229017
      pz      :     0.982826  p :     2.945505
      px      :     1.049679
      py      :     0.913000
      dz2     :     0.017141  d :     0.085525
      dxz     :     0.012895
      dyz     :     0.022340
      dx2y2   :     0.021276
      dxy     :     0.011874
      f0      :     0.000730  f :     0.006748
      f+1     :     0.001217
      f-1     :     0.001158
      f+2     :     0.001147
      f-2     :     0.000629
      f+3     :     0.000974
      f-3     :     0.000892
  7 C s       :     3.265486  s :     3.265486
      pz      :     0.728333  p :     2.402753
      px      :     0.927028
      py      :     0.747393
      dz2     :     0.051128  d :     0.191440
      dxz     :     0.037341
      dyz     :     0.016862
      dx2y2   :     0.022212
      dxy     :     0.063896
      f0      :     0.001611  f :     0.016495
      f+1     :     0.001432
      f-1     :     0.003648
      f+2     :     0.002241
      f-2     :     0.003606
      f+3     :     0.002053
      f-3     :     0.001903
  8 O s       :     3.857675  s :     3.857675
      pz      :     1.395733  p :     4.553015
      px      :     1.792112
      py      :     1.365170
      dz2     :     0.010104  d :     0.035833
      dxz     :     0.003658
      dyz     :     0.010312
      dx2y2   :     0.006890
      dxy     :     0.004869
      f0      :     0.000236  f :     0.002103
      f+1     :     0.000064
      f-1     :     0.000568
      f+2     :     0.000449
      f-2     :     0.000311
      f+3     :     0.000215
      f-3     :     0.000259
  9 H s       :     0.597702  s :     0.597702
      pz      :     0.017335  p :     0.046675
      px      :     0.018787
      py      :     0.010553
 10 H s       :     0.899693  s :     0.899693
      pz      :     0.007302  p :     0.021461
      px      :     0.010871
      py      :     0.003287
 11 H s       :     0.885630  s :     0.885630
      pz      :     0.013820  p :     0.020816
      px      :     0.004430
      py      :     0.002566
 12 H s       :     0.857346  s :     0.857346
      pz      :     0.004612  p :     0.022607
      px      :     0.010051
      py      :     0.007943
 13 H s       :     0.863879  s :     0.863879
      pz      :     0.007996  p :     0.022948
      px      :     0.010187
      py      :     0.004765
 14 H s       :     0.889205  s :     0.889205
      pz      :     0.003193  p :     0.022495
      px      :     0.015465
      py      :     0.003838
 15 H s       :     0.631753  s :     0.631753
      pz      :     0.012995  p :     0.045817
      px      :     0.019880
      py      :     0.012943
 16 H s       :     0.870273  s :     0.870273
      pz      :     0.003925  p :     0.022765
      px      :     0.014095
      py      :     0.004744
 17 H s       :     0.857171  s :     0.857171
      pz      :     0.010039  p :     0.022451
      px      :     0.004729
      py      :     0.007683
 18 H s       :     0.872690  s :     0.872690
      pz      :     0.002009  p :     0.020649
      px      :     0.012517
      py      :     0.006124


                     *******************************
                     * LOEWDIN POPULATION ANALYSIS *
                     *******************************

----------------------
LOEWDIN ATOMIC CHARGES
----------------------
   0 O :   -0.066380
   1 C :   -0.273072
   2 C :   -0.246029
   3 C :   -0.147904
   4 C :   -0.302451
   5 O :   -0.039576
   6 C :   -0.155007
   7 C :   -0.185771
   8 O :    0.046450
   9 H :    0.181097
  10 H :    0.120545
  11 H :    0.118732
  12 H :    0.124649
  13 H :    0.136521
  14 H :    0.133658
  15 H :    0.174823
  16 H :    0.133306
  17 H :    0.122608
  18 H :    0.123800

-------------------------------
LOEWDIN REDUCED ORBITAL CHARGES
-------------------------------
  0 O s       :     3.361419  s :     3.361419
      pz      :     1.631302  p :     4.632412
      px      :     1.608675
      py      :     1.392435
      dz2     :     0.006611  d :     0.068194
      dxz     :     0.010958
      dyz     :     0.016374
      dx2y2   :     0.019812
      dxy     :     0.014439
      f0      :     0.000329  f :     0.004355
      f+1     :     0.000423
      f-1     :     0.000571
      f+2     :     0.001043
      f-2     :     0.000341
      f+3     :     0.000903
      f-3     :     0.000746
  1 C s       :     2.787310  s :     2.787310
      pz      :     1.034761  p :     2.858531
      px      :     1.003739
      py      :     0.820031
      dz2     :     0.085405  d :     0.553638
      dxz     :     0.075606
      dyz     :     0.113864
      dx2y2   :     0.134842
      dxy     :     0.143922
      f0      :     0.008734  f :     0.073592
      f+1     :     0.003767
      f-1     :     0.007930
      f+2     :     0.013486
      f-2     :     0.006448
      f+3     :     0.018344
      f-3     :     0.014883
  2 C s       :     2.696536  s :     2.696536
      pz      :     0.955178  p :     2.907812
      px      :     0.999612
      py      :     0.953023
      dz2     :     0.114314  d :     0.577851
      dxz     :     0.140177
      dyz     :     0.086741
      dx2y2   :     0.126436
      dxy     :     0.110184
      f0      :     0.010335  f :     0.063830
      f+1     :     0.009065
      f-1     :     0.009237
      f+2     :     0.009916
      f-2     :     0.007844
      f+3     :     0.009932
      f-3     :     0.007501
  3 C s       :     2.780745  s :     2.780745
      pz      :     0.947331  p :     2.967382
      px      :     1.026331
      py      :     0.993721
      dz2     :     0.072964  d :     0.360705
      dxz     :     0.076618
      dyz     :     0.074067
      dx2y2   :     0.056748
      dxy     :     0.080308
      f0      :     0.007274  f :     0.039072
      f+1     :     0.004500
      f-1     :     0.008317
      f+2     :     0.006196
      f-2     :     0.002739
      f+3     :     0.004127
      f-3     :     0.005919
  4 C s       :     2.738808  s :     2.738808
      pz      :     0.878370  p :     2.802609
      px      :     0.990090
      py      :     0.934149
      dz2     :     0.182748  d :     0.670732
      dxz     :     0.099747
      dyz     :     0.159350
      dx2y2   :     0.154511
      dxy     :     0.074377
      f0      :     0.017518  f :     0.090302
      f+1     :     0.010843
      f-1     :     0.017176
      f+2     :     0.014404
      f-2     :     0.014022
      f+3     :     0.009892
      f-3     :     0.006448
  5 O s       :     3.356399  s :     3.356399
      pz      :     1.551163  p :     4.608360
      px      :     1.389944
      py      :     1.667253
      dz2     :     0.016413  d :     0.070417
      dxz     :     0.011939
      dyz     :     0.016039
      dx2y2   :     0.019370
      dxy     :     0.006657
      f0      :     0.000613  f :     0.004400
      f+1     :     0.000649
      f-1     :     0.000847
      f+2     :     0.000616
      f-2     :     0.000649
      f+3     :     0.000549
      f-3     :     0.000477
  6 C s       :     2.779765  s :     2.779765
      pz      :     1.002148  p :     2.973968
      px      :     1.020348
      py      :     0.951472
      dz2     :     0.070602  d :     0.362090
      dxz     :     0.050604
      dyz     :     0.103187
      dx2y2   :     0.082436
      dxy     :     0.055260
      f0      :     0.005875  f :     0.039184
      f+1     :     0.005245
      f-1     :     0.006525
      f+2     :     0.005676
      f-2     :     0.005040
      f+3     :     0.006165
      f-3     :     0.004657
  7 C s       :     2.815918  s :     2.815918
      pz      :     0.796185  p :     2.603663
      px      :     0.960665
      py      :     0.846813
      dz2     :     0.144186  d :     0.668130
      dxz     :     0.122934
      dyz     :     0.112656
      dx2y2   :     0.097149
      dxy     :     0.191205
      f0      :     0.009640  f :     0.098059
      f+1     :     0.008056
      f-1     :     0.018603
      f+2     :     0.013733
      f-2     :     0.022982
      f+3     :     0.015738
      f-3     :     0.009308
  8 O s       :     3.407667  s :     3.407667
      pz      :     1.400478  p :     4.469795
      px      :     1.636151
      py      :     1.433167
      dz2     :     0.011151  d :     0.070350
      dxz     :     0.009614
      dyz     :     0.024064
      dx2y2   :     0.011844
      dxy     :     0.013677
      f0      :     0.000466  f :     0.005738
      f+1     :     0.000172
      f-1     :     0.001230
      f+2     :     0.001365
      f-2     :     0.001290
      f+3     :     0.000705
      f-3     :     0.000509
  9 H s       :     0.656529  s :     0.656529
      pz      :     0.065431  p :     0.162374
      px      :     0.066215
      py      :     0.030729
 10 H s       :     0.824180  s :     0.824180
      pz      :     0.020764  p :     0.055275
      px      :     0.025180
      py      :     0.009331
 11 H s       :     0.824971  s :     0.824971
      pz      :     0.034279  p :     0.056297
      px      :     0.013130
      py      :     0.008889
 12 H s       :     0.814908  s :     0.814908
      pz      :     0.013209  p :     0.060442
      px      :     0.026660
      py      :     0.020573
 13 H s       :     0.803904  s :     0.803904
      pz      :     0.019301  p :     0.059575
      px      :     0.026884
      py      :     0.013390
 14 H s       :     0.811153  s :     0.811153
      pz      :     0.009799  p :     0.055189
      px      :     0.034086
      py      :     0.011304
 15 H s       :     0.668227  s :     0.668227
      pz      :     0.036642  p :     0.156950
      px      :     0.079091
      py      :     0.041216
 16 H s       :     0.807405  s :     0.807405
      pz      :     0.012849  p :     0.059289
      px      :     0.033388
      py      :     0.013051
 17 H s       :     0.817172  s :     0.817172
      pz      :     0.025542  p :     0.060220
      px      :     0.015088
      py      :     0.019590
 18 H s       :     0.822850  s :     0.822850
      pz      :     0.006377  p :     0.053350
      px      :     0.030979
      py      :     0.015994


                      *****************************
                      * MAYER POPULATION ANALYSIS *
                      *****************************

  NA   - Mulliken gross atomic population
  ZA   - Total nuclear charge
  QA   - Mulliken gross atomic charge
  VA   - Mayer's total valence
  BVA  - Mayer's bonded valence
  FA   - Mayer's free valence

  ATOM       NA         ZA         QA         VA         BVA        FA
  0 O      8.5603     8.0000    -0.5603     1.8216     1.8216     0.0000
  1 C      5.9330     6.0000     0.0670     3.9155     3.9155     0.0000
  2 C      5.7572     6.0000     0.2428     3.5219     3.5219     0.0000
  3 C      6.2495     6.0000    -0.2495     3.8624     3.8624     0.0000
  4 C      5.8996     6.0000     0.1004     3.9369     3.9369    -0.0000
  5 O      8.5149     8.0000    -0.5149     1.8612     1.8612    -0.0000
  6 C      6.2668     6.0000    -0.2668     3.8754     3.8754     0.0000
  7 C      5.8762     6.0000     0.1238     3.9572     3.9572    -0.0000
  8 O      8.4486     8.0000    -0.4486     1.9584     1.9584    -0.0000
  9 H      0.6444     1.0000     0.3556     0.9000     0.9000     0.0000
 10 H      0.9212     1.0000     0.0788     0.9655     0.9655    -0.0000
 11 H      0.9064     1.0000     0.0936     0.9649     0.9649     0.0000
 12 H      0.8800     1.0000     0.1200     0.9800     0.9800     0.0000
 13 H      0.8868     1.0000     0.1132     0.9924     0.9924     0.0000
 14 H      0.9117     1.0000     0.0883     0.9805     0.9805     0.0000
 15 H      0.6776     1.0000     0.3224     0.9123     0.9123    -0.0000
 16 H      0.8930     1.0000     0.1070     0.9908     0.9908     0.0000
 17 H      0.8796     1.0000     0.1204     0.9748     0.9748     0.0000
 18 H      0.8933     1.0000     0.1067     0.9639     0.9639    -0.0000

  Mayer bond orders larger than 0.1
B(  0-O ,  1-C ) :   0.9417 B(  0-O ,  9-H ) :   0.8618 B(  1-C ,  2-C ) :   0.9388 
B(  1-C , 10-H ) :   0.9772 B(  1-C , 11-H ) :   0.9934 B(  2-C ,  3-C ) :   0.9120 
B(  2-C ,  6-C ) :   0.9219 B(  2-C ,  7-C ) :   0.8854 B(  3-C ,  4-C ) :   0.9686 
B(  3-C , 12-H ) :   0.9876 B(  3-C , 13-H ) :   0.9710 B(  4-C ,  5-O ) :   0.9880 
B(  4-C ,  6-C ) :   0.9703 B(  4-C , 14-H ) :   0.9968 B(  5-O , 15-H ) :   0.8836 
B(  6-C , 16-H ) :   0.9717 B(  6-C , 17-H ) :   0.9850 B(  7-C ,  8-O ) :   1.9330 
B(  7-C , 18-H ) :   1.0134 

-------
TIMINGS
-------

Total SCF time: 0 days 0 hours 2 min 28 sec 

Total time                  ....     148.377 sec
Sum of individual times     ....     152.755 sec  (103.0%)

Fock matrix formation       ....     146.838 sec  ( 99.0%)
Diagonalization             ....       0.722 sec  (  0.5%)
Density matrix formation    ....       0.044 sec  (  0.0%)
Population analysis         ....       0.166 sec  (  0.1%)
Initial guess               ....       3.055 sec  (  2.1%)
Orbital Transformation      ....       0.000 sec  (  0.0%)
Orbital Orthonormalization  ....       0.000 sec  (  0.0%)
DIIS solution               ....       0.206 sec  (  0.1%)
SOSCF solution              ....       0.261 sec  (  0.2%)

   <<< Auxbasis replaced with dsgdb9nsd_104654.AUXC.tmp (Dim=834) >>> 


------------------------------------------------------------------------------
                              ORCA MP2 CALCULATION
------------------------------------------------------------------------------

Freezing NCore=18 chemical core electrons

   <<< Use J-auxbasis for calculation of Separable RI-J derivative contributions dsgdb9nsd_104654.AUXJ.tmp (Dim=861) >>> 


---------------------
RI-MP2 ENERGY+DENSITY
---------------------
Dimension of the basis                    ...  339
Memory devoted to MP2                     ... 2000 MB   
Data format for buffers                   ... DOUBLE
Compression type for matrix containers    ... UNCOMPRESSED
Overall scaling of the MP2 energy         ...   1.000e+00 Eh
Calculating two index integrals           ... done (    0.018 sec)
Cholesky decomposition of V**-1           ... done (    0.117 sec)

-----------------
RI-TRANSFORMATION (AUX index driven)
-----------------

Dimension of the orbital-basis         ... 339
Dimension of the aux-basis             ... 834
Transformation of internal MOs         ...    0-  34
Transformation of internal/external MOs...    0-  34 to   35- 338
Number Format for Storage              ... Double (8 Byte)
Integral mode                          ... Direct

First Phase: integral generation and transformation of MO indices
  Aux angular momentum 0               ... done (    0.812 sec)
  Aux angular momentum 1               ... done (    1.127 sec)
  Aux angular momentum 2               ... done (    1.192 sec)
  Aux angular momentum 3               ... done (    0.901 sec)
  Aux angular momentum 4               ... done (    0.414 sec)
Closing buffer VIJ ( 0.00 GB; CompressionRatio= 1.94)
Closing buffer VIA ( 0.07 GB; CompressionRatio= 1.00)
  Phase 1 completed in     4.545 sec
Second Phase: sorting and transformation of aux index

IJ-Transformation
Memory available                       ... 1986 MB 
Max. # MO pairs treated in a batch     ... 35    
# of internal orbitals                 ... 35
# batches for internal orbitals        ... 1
Closing buffer IJV ( 0.00 GB; CompressionRatio= 1.00)
(ij|v) transformation done in     0.208 sec

IA-Transformation
Memory available                       ... 1986 MB 
Max. # MO pairs treated in a batch     ... 35    
# of internal orbitals                 ... 35
# batches for internal orbitals        ... 1
Closing buffer IAV ( 0.07 GB; CompressionRatio= 1.00)
(ia|v) transformation done in     1.510 sec

  Phase 2 completed in     1.740 sec
RI-Integral transformation completed in     6.285 sec
Opening buffers                              ... done
Frozen core precalculation                   ... done

Starting loop over batches of integrals:

Operator 0  - window                       ... (  9- 34)x( 35-338)
Operator 0  - Memory available             ...  2000 MB
Operator 0  - Memory needed per MO         ...   3.9 MB
Operator 0  - Number of orbitals per batch ... 26
Operator 0  - Number of batches            ... 1

OPERATOR  0   PASS   0:  MOs     9 ...   34
  Reading integrals       ... ok
  Internal MO  11
  Internal MO  14
  Internal MO  17
  Internal MO  20
  Internal MO  23
  Internal MO  26
  Internal MO  29
  Internal MO  32
Time spent in pair loops =    40.127 sec
Deleting buffer (Ka|jb)[aa] ...done

-----------------------------------------------
 RI-MP2 CORRELATION ENERGY:     -1.677379313 Eh
-----------------------------------------------


---------------------
MP2 DENSITY FORMATION
---------------------

Completing the external part of the density      ... done
Storing the unrelaxed density                    ... done

Calculating G(D)                                 ... done
Completing the Lagrangian                        ... done
Solving the Z-vector equations                   ... 

------------------------------------------------------------------------------
                           ORCA CP-SCF CALCULATION
------------------------------------------------------------------------------

Input orbitals are from        ... dsgdb9nsd_104654.gbw
Input Perturbation             ... dsgdb9nsd_104654.pin.tmp
Wavefunction output            ... dsgdb9nsd_104654.pout.tmp
Perturbation mode              ... Real perturbation
Solver                         ... POPLE
Max. number of iterations      ... 128
Convergence tolerance          ... 1.000e-08
Integral handling              ... Direct
Number of perturbations        ... 1
Number of operators            ... 1
Orbital ranges used for CP-SCF:
 Operator 0:  Orbitals   0... 34  to  35...338
Variables per vector in CP-SCF ... 10640
Number of vectors sought       ... 1
     CP-SCF ITERATION   0: 
     CP-SCF ITERATION   1:      0.001530367
     CP-SCF ITERATION   2:      0.000256211
     CP-SCF ITERATION   3:      0.000018661
     CP-SCF ITERATION   4:      0.000002285
     CP-SCF ITERATION   5:      0.000000423
     CP-SCF ITERATION   6:      0.000000056
     CP-SCF ITERATION   7:      0.000000007
done
Finalizing the relaxed density                   ... done
Transforming P to the AO basis                   ... done
Storing the relaxed density                      ... done

                *********************************************
                * UNRELAXED MP2 DENSITY POPULATION ANALYSIS *
                *********************************************

------------------------------------------------------------------------------
                           ORCA POPULATION ANALYSIS
------------------------------------------------------------------------------
Input electron density              ... dsgdb9nsd_104654.pmp2ur
BaseName (.gbw .S,...)              ... dsgdb9nsd_104654

                    ********************************
                    * MULLIKEN POPULATION ANALYSIS *
                    ********************************

-----------------------
MULLIKEN ATOMIC CHARGES
-----------------------
   0 O :   -0.546642
   1 C :    0.051129
   2 C :    0.236335
   3 C :   -0.256169
   4 C :    0.087229
   5 O :   -0.502016
   6 C :   -0.274344
   7 C :    0.099866
   8 O :   -0.423896
   9 H :    0.352521
  10 H :    0.082511
  11 H :    0.097017
  12 H :    0.123571
  13 H :    0.117097
  14 H :    0.092489
  15 H :    0.319992
  16 H :    0.110955
  17 H :    0.123905
  18 H :    0.108449
Sum of atomic charges:   -0.0000000

--------------------------------
MULLIKEN REDUCED ORBITAL CHARGES
--------------------------------
  0 O s       :     3.797242  s :     3.797242
      pz      :     1.674779  p :     4.683491
      px      :     1.675711
      py      :     1.333002
      dz2     :     0.009925  d :     0.061441
      dxz     :     0.013859
      dyz     :     0.011526
      dx2y2   :     0.016517
      dxy     :     0.009614
      f0      :     0.000533  f :     0.004467
      f+1     :     0.000652
      f-1     :     0.000608
      f+2     :     0.000705
      f-2     :     0.000598
      f+3     :     0.000612
      f-3     :     0.000758
  1 C s       :     3.162325  s :     3.162325
      pz      :     0.992724  p :     2.608959
      px      :     0.926755
      py      :     0.689479
      dz2     :     0.025317  d :     0.162797
      dxz     :     0.023869
      dyz     :     0.038005
      dx2y2   :     0.031674
      dxy     :     0.043932
      f0      :     0.002131  f :     0.014790
      f+1     :     0.001394
      f-1     :     0.001656
      f+2     :     0.002349
      f-2     :     0.001254
      f+3     :     0.003463
      f-3     :     0.002544
  2 C s       :     2.884474  s :     2.884474
      pz      :     0.931738  p :     2.688163
      px      :     0.830505
      py      :     0.925921
      dz2     :     0.033802  d :     0.176217
      dxz     :     0.044373
      dyz     :     0.027363
      dx2y2   :     0.041542
      dxy     :     0.029136
      f0      :     0.002340  f :     0.014811
      f+1     :     0.002204
      f-1     :     0.001884
      f+2     :     0.002039
      f-2     :     0.001839
      f+3     :     0.002289
      f-3     :     0.002214
  3 C s       :     3.212365  s :     3.212365
      pz      :     0.926184  p :     2.924101
      px      :     1.066013
      py      :     0.931904
      dz2     :     0.024374  d :     0.109185
      dxz     :     0.022746
      dyz     :     0.020593
      dx2y2   :     0.019574
      dxy     :     0.021897
      f0      :     0.001922  f :     0.010517
      f+1     :     0.001506
      f-1     :     0.001709
      f+2     :     0.001289
      f-2     :     0.000972
      f+3     :     0.001285
      f-3     :     0.001835
  4 C s       :     3.166322  s :     3.166322
      pz      :     0.741266  p :     2.545821
      px      :     0.995264
      py      :     0.809291
      dz2     :     0.049314  d :     0.183087
      dxz     :     0.030932
      dyz     :     0.036181
      dx2y2   :     0.044296
      dxy     :     0.022365
      f0      :     0.003267  f :     0.017541
      f+1     :     0.002261
      f-1     :     0.003101
      f+2     :     0.002980
      f-2     :     0.002315
      f+3     :     0.001874
      f-3     :     0.001743
  5 O s       :     3.779358  s :     3.779358
      pz      :     1.563274  p :     4.656449
      px      :     1.390451
      py      :     1.702725
      dz2     :     0.013159  d :     0.061666
      dxz     :     0.008663
      dyz     :     0.014839
      dx2y2   :     0.015296
      dxy     :     0.009709
      f0      :     0.000591  f :     0.004543
      f+1     :     0.000644
      f-1     :     0.000784
      f+2     :     0.000706
      f-2     :     0.000602
      f+3     :     0.000659
      f-3     :     0.000557
  6 C s       :     3.226087  s :     3.226087
      pz      :     0.977068  p :     2.927754
      px      :     1.043195
      py      :     0.907491
      dz2     :     0.021887  d :     0.109946
      dxz     :     0.017644
      dyz     :     0.027518
      dx2y2   :     0.025105
      dxy     :     0.017791
      f0      :     0.001348  f :     0.010557
      f+1     :     0.001691
      f-1     :     0.001694
      f+2     :     0.001708
      f-2     :     0.001186
      f+3     :     0.001541
      f-3     :     0.001389
  7 C s       :     3.262998  s :     3.262998
      pz      :     0.734264  p :     2.410515
      px      :     0.924608
      py      :     0.751643
      dz2     :     0.053512  d :     0.206980
      dxz     :     0.040744
      dyz     :     0.019548
      dx2y2   :     0.025840
      dxy     :     0.067336
      f0      :     0.002046  f :     0.019641
      f+1     :     0.001952
      f-1     :     0.003908
      f+2     :     0.002634
      f-2     :     0.004057
      f+3     :     0.002645
      f-3     :     0.002398
  8 O s       :     3.851261  s :     3.851261
      pz      :     1.380515  p :     4.505802
      px      :     1.774143
      py      :     1.351144
      dz2     :     0.015138  d :     0.062071
      dxz     :     0.009200
      dyz     :     0.015075
      dx2y2   :     0.012177
      dxy     :     0.010481
      f0      :     0.000614  f :     0.004762
      f+1     :     0.000434
      f-1     :     0.000959
      f+2     :     0.000821
      f-2     :     0.000704
      f+3     :     0.000598
      f-3     :     0.000632
  9 H s       :     0.599186  s :     0.599186
      pz      :     0.017786  p :     0.048293
      px      :     0.019214
      py      :     0.011292
 10 H s       :     0.892819  s :     0.892819
      pz      :     0.008360  p :     0.024670
      px      :     0.011846
      py      :     0.004465
 11 H s       :     0.878993  s :     0.878993
      pz      :     0.014682  p :     0.023990
      px      :     0.005561
      py      :     0.003746
 12 H s       :     0.850746  s :     0.850746
      pz      :     0.005707  p :     0.025682
      px      :     0.011021
      py      :     0.008954
 13 H s       :     0.856893  s :     0.856893
      pz      :     0.009005  p :     0.026010
      px      :     0.011170
      py      :     0.005835
 14 H s       :     0.881899  s :     0.881899
      pz      :     0.004362  p :     0.025613
      px      :     0.016287
      py      :     0.004963
 15 H s       :     0.632458  s :     0.632458
      pz      :     0.013795  p :     0.047549
      px      :     0.019914
      py      :     0.013841
 16 H s       :     0.863185  s :     0.863185
      pz      :     0.005048  p :     0.025860
      px      :     0.014972
      py      :     0.005839
 17 H s       :     0.850546  s :     0.850546
      pz      :     0.011029  p :     0.025549
      px      :     0.005819
      py      :     0.008701
 18 H s       :     0.867687  s :     0.867687
      pz      :     0.003253  p :     0.023864
      px      :     0.013361
      py      :     0.007250


                     *******************************
                     * LOEWDIN POPULATION ANALYSIS *
                     *******************************

----------------------
LOEWDIN ATOMIC CHARGES
----------------------
   0 O :   -0.057625
   1 C :   -0.282097
   2 C :   -0.247940
   3 C :   -0.153818
   4 C :   -0.308150
   5 O :   -0.030845
   6 C :   -0.160950
   7 C :   -0.200989
   8 O :    0.063506
   9 H :    0.179125
  10 H :    0.122115
  11 H :    0.120109
  12 H :    0.126566
  13 H :    0.138370
  14 H :    0.135253
  15 H :    0.173237
  16 H :    0.135111
  17 H :    0.124512
  18 H :    0.124511

-------------------------------
LOEWDIN REDUCED ORBITAL CHARGES
-------------------------------
  0 O s       :     3.358182  s :     3.358182
      pz      :     1.618620  p :     4.594466
      px      :     1.596146
      py      :     1.379700
      dz2     :     0.012472  d :     0.097645
      dxz     :     0.017145
      dyz     :     0.021898
      dx2y2   :     0.026095
      dxy     :     0.020034
      f0      :     0.000733  f :     0.007333
      f+1     :     0.000831
      f-1     :     0.001000
      f+2     :     0.001477
      f-2     :     0.000755
      f+3     :     0.001322
      f-3     :     0.001215
  1 C s       :     2.786516  s :     2.786516
      pz      :     1.027965  p :     2.842518
      px      :     0.996012
      py      :     0.818541
      dz2     :     0.090094  d :     0.573773
      dxz     :     0.080574
      dyz     :     0.117671
      dx2y2   :     0.138407
      dxy     :     0.147027
      f0      :     0.009532  f :     0.079289
      f+1     :     0.004594
      f-1     :     0.008805
      f+2     :     0.014099
      f-2     :     0.007225
      f+3     :     0.018969
      f-3     :     0.016065
  2 C s       :     2.695360  s :     2.695360
      pz      :     0.945419  p :     2.878552
      px      :     0.989891
      py      :     0.943242
      dz2     :     0.120604  d :     0.603029
      dxz     :     0.144425
      dyz     :     0.091463
      dx2y2   :     0.131263
      dxy     :     0.115275
      f0      :     0.011404  f :     0.070999
      f+1     :     0.010310
      f-1     :     0.010059
      f+2     :     0.010813
      f-2     :     0.008736
      f+3     :     0.010874
      f-3     :     0.008803
  3 C s       :     2.779288  s :     2.779288
      pz      :     0.938933  p :     2.942459
      px      :     1.018502
      py      :     0.985024
      dz2     :     0.078687  d :     0.387195
      dxz     :     0.082014
      dyz     :     0.078443
      dx2y2   :     0.062813
      dxy     :     0.085238
      f0      :     0.008231  f :     0.044876
      f+1     :     0.005397
      f-1     :     0.009055
      f+2     :     0.006927
      f-2     :     0.003470
      f+3     :     0.004931
      f-3     :     0.006865
  4 C s       :     2.738217  s :     2.738217
      pz      :     0.874235  p :     2.785502
      px      :     0.983389
      py      :     0.927878
      dz2     :     0.185332  d :     0.688005
      dxz     :     0.103891
      dyz     :     0.161790
      dx2y2   :     0.158159
      dxy     :     0.078832
      f0      :     0.018229  f :     0.096426
      f+1     :     0.011864
      f-1     :     0.018293
      f+2     :     0.015340
      f-2     :     0.014600
      f+3     :     0.010707
      f-3     :     0.007393
  5 O s       :     3.353209  s :     3.353209
      pz      :     1.537726  p :     4.570548
      px      :     1.379822
      py      :     1.652999
      dz2     :     0.022268  d :     0.099699
      dxz     :     0.017522
      dyz     :     0.022403
      dx2y2   :     0.025228
      dxy     :     0.012276
      f0      :     0.001033  f :     0.007390
      f+1     :     0.001070
      f-1     :     0.001308
      f+2     :     0.001056
      f-2     :     0.001064
      f+3     :     0.000974
      f-3     :     0.000885
  6 C s       :     2.778337  s :     2.778337
      pz      :     0.993620  p :     2.948854
      px      :     1.012210
      py      :     0.943023
      dz2     :     0.076289  d :     0.388757
      dxz     :     0.056667
      dyz     :     0.107099
      dx2y2   :     0.088184
      dxy     :     0.060518
      f0      :     0.006645  f :     0.045003
      f+1     :     0.006228
      f-1     :     0.007404
      f+2     :     0.006495
      f-2     :     0.005728
      f+3     :     0.006932
      f-3     :     0.005570
  7 C s       :     2.813866  s :     2.813866
      pz      :     0.798482  p :     2.601886
      px      :     0.955746
      py      :     0.847658
      dz2     :     0.144848  d :     0.681501
      dxz     :     0.126172
      dyz     :     0.116878
      dx2y2   :     0.100787
      dxy     :     0.192816
      f0      :     0.010398  f :     0.103735
      f+1     :     0.008820
      f-1     :     0.019390
      f+2     :     0.014993
      f-2     :     0.023558
      f+3     :     0.016279
      f-3     :     0.010298
  8 O s       :     3.403109  s :     3.403109
      pz      :     1.385419  p :     4.424405
      px      :     1.620657
      py      :     1.418329
      dz2     :     0.017103  d :     0.099973
      dxz     :     0.015243
      dyz     :     0.030297
      dx2y2   :     0.017957
      dxy     :     0.019373
      f0      :     0.000923  f :     0.009007
      f+1     :     0.000552
      f-1     :     0.001808
      f+2     :     0.001915
      f-2     :     0.001740
      f+3     :     0.001120
      f-3     :     0.000950
  9 H s       :     0.655179  s :     0.655179
      pz      :     0.066649  p :     0.165696
      px      :     0.067447
      py      :     0.031600
 10 H s       :     0.817079  s :     0.817079
      pz      :     0.022544  p :     0.060806
      px      :     0.027321
      py      :     0.010941
 11 H s       :     0.818037  s :     0.818037
      pz      :     0.036789  p :     0.061855
      px      :     0.014600
      py      :     0.010465
 12 H s       :     0.807626  s :     0.807626
      pz      :     0.014653  p :     0.065808
      px      :     0.028754
      py      :     0.022400
 13 H s       :     0.796613  s :     0.796613
      pz      :     0.021153  p :     0.065016
      px      :     0.029063
      py      :     0.014801
 14 H s       :     0.803978  s :     0.803978
      pz      :     0.011281  p :     0.060769
      px      :     0.036747
      py      :     0.012741
 15 H s       :     0.666218  s :     0.666218
      pz      :     0.037488  p :     0.160545
      px      :     0.080934
      py      :     0.042122
 16 H s       :     0.800110  s :     0.800110
      pz      :     0.014240  p :     0.064779
      px      :     0.036020
      py      :     0.014519
 17 H s       :     0.809864  s :     0.809864
      pz      :     0.027678  p :     0.065624
      px      :     0.016548
      py      :     0.021398
 18 H s       :     0.816509  s :     0.816509
      pz      :     0.007917  p :     0.058980
      px      :     0.033134
      py      :     0.017929


                      *****************************
                      * MAYER POPULATION ANALYSIS *
                      *****************************

  NA   - Mulliken gross atomic population
  ZA   - Total nuclear charge
  QA   - Mulliken gross atomic charge
  VA   - Mayer's total valence
  BVA  - Mayer's bonded valence
  FA   - Mayer's free valence

  ATOM       NA         ZA         QA         VA         BVA        FA
  0 O      8.5466     8.0000    -0.5466     2.1192     1.7151     0.4042
  1 C      5.9489     6.0000     0.0511     4.0131     3.7098     0.3033
  2 C      5.7637     6.0000     0.2363     3.6163     3.2611     0.3552
  3 C      6.2562     6.0000    -0.2562     3.9753     3.6414     0.3339
  4 C      5.9128     6.0000     0.0872     4.0237     3.7016     0.3221
  5 O      8.5020     8.0000    -0.5020     2.1573     1.7538     0.4034
  6 C      6.2743     6.0000    -0.2743     3.9903     3.6543     0.3360
  7 C      5.9001     6.0000     0.0999     4.0510     3.7063     0.3447
  8 O      8.4239     8.0000    -0.4239     2.2590     1.8027     0.4564
  9 H      0.6475     1.0000     0.3525     0.9066     0.8575     0.0491
 10 H      0.9175     1.0000     0.0825     0.9749     0.9238     0.0511
 11 H      0.9030     1.0000     0.0970     0.9737     0.9226     0.0511
 12 H      0.8764     1.0000     0.1236     0.9883     0.9380     0.0503
 13 H      0.8829     1.0000     0.1171     1.0002     0.9492     0.0510
 14 H      0.9075     1.0000     0.0925     0.9887     0.9391     0.0496
 15 H      0.6800     1.0000     0.3200     0.9189     0.8675     0.0515
 16 H      0.8890     1.0000     0.1110     0.9988     0.9476     0.0513
 17 H      0.8761     1.0000     0.1239     0.9833     0.9330     0.0503
 18 H      0.8916     1.0000     0.1084     0.9737     0.9215     0.0522

  Mayer bond orders larger than 0.1
B(  0-O ,  1-C ) :   0.8804 B(  0-O ,  9-H ) :   0.8210 B(  1-C ,  2-C ) :   0.8799 
B(  1-C , 10-H ) :   0.9371 B(  1-C , 11-H ) :   0.9533 B(  2-C ,  3-C ) :   0.8445 
B(  2-C ,  6-C ) :   0.8538 B(  2-C ,  7-C ) :   0.8282 B(  3-C ,  4-C ) :   0.9034 
B(  3-C , 12-H ) :   0.9477 B(  3-C , 13-H ) :   0.9306 B(  4-C ,  5-O ) :   0.9291 
B(  4-C ,  6-C ) :   0.9050 B(  4-C , 14-H ) :   0.9571 B(  5-O , 15-H ) :   0.8402 
B(  6-C , 16-H ) :   0.9312 B(  6-C , 17-H ) :   0.9452 B(  7-C ,  8-O ) :   1.7857 
B(  7-C , 18-H ) :   0.9742 


                *******************************************
                * RELAXED MP2 DENSITY POPULATION ANALYSIS *
                *******************************************

------------------------------------------------------------------------------
                           ORCA POPULATION ANALYSIS
------------------------------------------------------------------------------
[...]
      f0      :     0.002217  f :     0.014088
      f+1     :     0.002119
      f-1     :     0.001814
      f+2     :     0.001925
      f-2     :     0.001762
      f+3     :     0.002310
      f-3     :     0.001942
  3 C s       :     3.202893  s :     3.202893
      pz      :     0.925141  p :     2.942994
      px      :     1.074550
      py      :     0.943304
      dz2     :     0.019469  d :     0.096953
      dxz     :     0.020142
      dyz     :     0.021539
      dx2y2   :     0.016053
      dxy     :     0.019750
      f0      :     0.001791  f :     0.010011
      f+1     :     0.001415
      f-1     :     0.001616
      f+2     :     0.001287
      f-2     :     0.000977
      f+3     :     0.001248
      f-3     :     0.001677
  4 C s       :     3.196597  s :     3.196597
      pz      :     0.756269  p :     2.600869
      px      :     1.018248
      py      :     0.826352
      dz2     :     0.045792  d :     0.173799
      dxz     :     0.027565
      dyz     :     0.038134
      dx2y2   :     0.038982
      dxy     :     0.023325
      f0      :     0.003180  f :     0.016747
      f+1     :     0.002015
      f-1     :     0.002973
      f+2     :     0.002927
      f-2     :     0.002241
      f+3     :     0.001798
      f-3     :     0.001613
  5 O s       :     3.777133  s :     3.777133
      pz      :     1.550076  p :     4.603841
      px      :     1.370666
      py      :     1.683098
      dz2     :     0.012767  d :     0.059350
      dxz     :     0.008824
      dyz     :     0.013830
      dx2y2   :     0.014439
      dxy     :     0.009491
      f0      :     0.000595  f :     0.004471
      f+1     :     0.000633
      f-1     :     0.000759
      f+2     :     0.000697
      f-2     :     0.000599
      f+3     :     0.000641
      f-3     :     0.000547
  6 C s       :     3.218846  s :     3.218846
      pz      :     0.988056  p :     2.949178
      px      :     1.049735
      py      :     0.911388
      dz2     :     0.018858  d :     0.097904
      dxz     :     0.014356
      dyz     :     0.026928
      dx2y2   :     0.020245
      dxy     :     0.017516
      f0      :     0.001324  f :     0.010059
      f+1     :     0.001500
      f-1     :     0.001618
      f+2     :     0.001639
      f-2     :     0.001182
      f+3     :     0.001525
      f-3     :     0.001272
  7 C s       :     3.257585  s :     3.257585
      pz      :     0.770771  p :     2.491693
      px      :     0.941847
      py      :     0.779075
      dz2     :     0.046579  d :     0.193916
      dxz     :     0.038273
      dyz     :     0.021463
      dx2y2   :     0.023360
      dxy     :     0.064241
      f0      :     0.001847  f :     0.018209
      f+1     :     0.001843
      f-1     :     0.003524
      f+2     :     0.002572
      f-2     :     0.003770
      f+3     :     0.002472
      f-3     :     0.002181
  8 O s       :     3.834091  s :     3.834091
      pz      :     1.349342  p :     4.404023
      px      :     1.725238
      py      :     1.329443
      dz2     :     0.014106  d :     0.059273
      dxz     :     0.009409
      dyz     :     0.013802
      dx2y2   :     0.011164
      dxy     :     0.010792
      f0      :     0.000600  f :     0.004625
      f+1     :     0.000437
      f-1     :     0.000904
      f+2     :     0.000754
      f-2     :     0.000705
      f+3     :     0.000609
      f-3     :     0.000615
  9 H s       :     0.616520  s :     0.616520
      pz      :     0.017955  p :     0.048986
      px      :     0.019256
      py      :     0.011775
 10 H s       :     0.874732  s :     0.874732
      pz      :     0.007966  p :     0.023496
      px      :     0.011024
      py      :     0.004505
 11 H s       :     0.861249  s :     0.861249
      pz      :     0.013222  p :     0.022773
      px      :     0.005636
      py      :     0.003915
 12 H s       :     0.837220  s :     0.837220
      pz      :     0.005802  p :     0.024685
      px      :     0.010268
      py      :     0.008615
 13 H s       :     0.843404  s :     0.843404
      pz      :     0.008658  p :     0.024982
      px      :     0.010358
      py      :     0.005965
 14 H s       :     0.865254  s :     0.865254
      pz      :     0.004523  p :     0.024359
      px      :     0.014782
      py      :     0.005054
 15 H s       :     0.638538  s :     0.638538
      pz      :     0.014437  p :     0.048200
      px      :     0.019088
      py      :     0.014674
 16 H s       :     0.850018  s :     0.850018
      pz      :     0.005243  p :     0.024895
      px      :     0.013674
      py      :     0.005979
 17 H s       :     0.835839  s :     0.835839
      pz      :     0.010373  p :     0.024593
      px      :     0.005893
      py      :     0.008327
 18 H s       :     0.874038  s :     0.874038
      pz      :     0.003541  p :     0.022604
      px      :     0.012064
      py      :     0.006999


                     *******************************
                     * LOEWDIN POPULATION ANALYSIS *
                     *******************************

----------------------
LOEWDIN ATOMIC CHARGES
----------------------
   0 O :   -0.036603
   1 C :   -0.315368
   2 C :   -0.263030
   3 C :   -0.172856
   4 C :   -0.336720
   5 O :   -0.008830
   6 C :   -0.179181
   7 C :   -0.248309
   8 O :    0.124405
   9 H :    0.176714
  10 H :    0.130444
  11 H :    0.126925
  12 H :    0.134709
  13 H :    0.146798
  14 H :    0.143947
  15 H :    0.175440
  16 H :    0.143717
  17 H :    0.133114
  18 H :    0.124685

-------------------------------
LOEWDIN REDUCED ORBITAL CHARGES
-------------------------------
  0 O s       :     3.361174  s :     3.361174
      pz      :     1.609307  p :     4.570546
      px      :     1.586161
      py      :     1.375078
      dz2     :     0.012317  d :     0.097440
      dxz     :     0.016983
      dyz     :     0.022302
      dx2y2   :     0.025378
      dxy     :     0.020461
      f0      :     0.000746  f :     0.007443
      f+1     :     0.000836
      f-1     :     0.001016
      f+2     :     0.001497
      f-2     :     0.000765
      f+3     :     0.001340
      f-3     :     0.001243
  1 C s       :     2.794399  s :     2.794399
      pz      :     1.042276  p :     2.873724
      px      :     1.005020
      py      :     0.826428
      dz2     :     0.086643  d :     0.569698
      dxz     :     0.078210
      dyz     :     0.120397
      dx2y2   :     0.137070
      dxy     :     0.147379
      f0      :     0.009196  f :     0.077547
      f+1     :     0.004447
      f-1     :     0.008562
      f+2     :     0.013836
      f-2     :     0.007183
      f+3     :     0.018368
      f-3     :     0.015955
  2 C s       :     2.703832  s :     2.703832
      pz      :     0.946888  p :     2.886538
      px      :     0.997855
      py      :     0.941794
      dz2     :     0.120180  d :     0.601472
      dxz     :     0.142614
      dyz     :     0.093680
      dx2y2   :     0.128803
      dxy     :     0.116195
      f0      :     0.011502  f :     0.071188
      f+1     :     0.010455
      f-1     :     0.010148
      f+2     :     0.010626
      f-2     :     0.008818
      f+3     :     0.011013
      f-3     :     0.008625
  3 C s       :     2.787247  s :     2.787247
      pz      :     0.941900  p :     2.963694
      px      :     1.029676
      py      :     0.992118
      dz2     :     0.074334  d :     0.377487
      dxz     :     0.080044
      dyz     :     0.079925
      dx2y2   :     0.060204
      dxy     :     0.082981
      f0      :     0.008196  f :     0.044428
      f+1     :     0.005349
      f-1     :     0.008951
      f+2     :     0.006872
      f-2     :     0.003424
      f+3     :     0.004938
      f-3     :     0.006698
  4 C s       :     2.745230  s :     2.745230
      pz      :     0.881716  p :     2.809998
      px      :     0.994308
      py      :     0.933974
      dz2     :     0.187024  d :     0.687103
      dxz     :     0.102081
      dyz     :     0.162325
      dx2y2   :     0.155934
      dxy     :     0.079739
      f0      :     0.017545  f :     0.094389
      f+1     :     0.011696
      f-1     :     0.017951
      f+2     :     0.014969
      f-2     :     0.014406
      f+3     :     0.010626
      f-3     :     0.007197
  5 O s       :     3.356938  s :     3.356938
      pz      :     1.527591  p :     4.545209
      px      :     1.379198
      py      :     1.638420
      dz2     :     0.022334  d :     0.099201
      dxz     :     0.017659
      dyz     :     0.022088
      dx2y2   :     0.024780
      dxy     :     0.012340
      f0      :     0.001045  f :     0.007482
      f+1     :     0.001080
      f-1     :     0.001334
      f+2     :     0.001073
      f-2     :     0.001085
      f+3     :     0.000984
      f-3     :     0.000881
  6 C s       :     2.786142  s :     2.786142
      pz      :     1.000958  p :     2.969540
      px      :     1.021617
      py      :     0.946965
      dz2     :     0.073919  d :     0.378928
      dxz     :     0.053653
      dyz     :     0.106434
      dx2y2   :     0.083291
      dxy     :     0.061632
      f0      :     0.006679  f :     0.044571
      f+1     :     0.006096
      f-1     :     0.007287
      f+2     :     0.006394
      f-2     :     0.005668
      f+3     :     0.006963
      f-3     :     0.005483
  7 C s       :     2.819334  s :     2.819334
      pz      :     0.825544  p :     2.657524
      px      :     0.964102
      py      :     0.867878
      dz2     :     0.135962  d :     0.672755
      dxz     :     0.127550
      dyz     :     0.118789
      dx2y2   :     0.098228
      dxy     :     0.192226
      f0      :     0.009866  f :     0.098697
      f+1     :     0.008479
      f-1     :     0.018257
      f+2     :     0.015198
      f-2     :     0.021490
      f+3     :     0.015397
      f-3     :     0.010009
  8 O s       :     3.405616  s :     3.405616
      pz      :     1.363313  p :     4.360406
      px      :     1.592991
      py      :     1.404102
      dz2     :     0.017527  d :     0.100426
      dxz     :     0.015594
      dyz     :     0.029781
      dx2y2   :     0.017647
      dxy     :     0.019877
      f0      :     0.000961  f :     0.009148
      f+1     :     0.000557
      f-1     :     0.001882
      f+2     :     0.001900
      f-2     :     0.001750
      f+3     :     0.001128
      f-3     :     0.000969
  9 H s       :     0.657094  s :     0.657094
      pz      :     0.067008  p :     0.166193
      px      :     0.067538
      py      :     0.031647
 10 H s       :     0.807885  s :     0.807885
      pz      :     0.022797  p :     0.061671
      px      :     0.027504
      py      :     0.011371
 11 H s       :     0.810057  s :     0.810057
      pz      :     0.036651  p :     0.063018
      px      :     0.015139
      py      :     0.011228
 12 H s       :     0.798364  s :     0.798364
      pz      :     0.015132  p :     0.066927
      px      :     0.028879
      py      :     0.022916
 13 H s       :     0.787094  s :     0.787094
      pz      :     0.021537  p :     0.066107
      px      :     0.029162
      py      :     0.015409
 14 H s       :     0.794461  s :     0.794461
      pz      :     0.011775  p :     0.061592
      px      :     0.036624
      py      :     0.013193
 15 H s       :     0.663194  s :     0.663194
      pz      :     0.037890  p :     0.161366
      px      :     0.080577
      py      :     0.042899
 16 H s       :     0.790328  s :     0.790328
      pz      :     0.014840  p :     0.065956
      px      :     0.035994
      py      :     0.015121
 17 H s       :     0.800021  s :     0.800021
      pz      :     0.028101  p :     0.066865
      px      :     0.017044
      py      :     0.021719
 18 H s       :     0.815014  s :     0.815014
      pz      :     0.008826  p :     0.060301
      px      :     0.032725
      py      :     0.018750


                      *****************************
                      * MAYER POPULATION ANALYSIS *
                      *****************************

  NA   - Mulliken gross atomic population
  ZA   - Total nuclear charge
  QA   - Mulliken gross atomic charge
  VA   - Mayer's total valence
  BVA  - Mayer's bonded valence
  FA   - Mayer's free valence

  ATOM       NA         ZA         QA         VA         BVA        FA
  0 O      8.4820     8.0000    -0.4820     2.1978     1.8017     0.3961
  1 C      6.0275     6.0000    -0.0275     4.0455     3.7468     0.2987
  2 C      5.8791     6.0000     0.1209     3.6776     3.3287     0.3488
  3 C      6.2529     6.0000    -0.2529     3.9191     3.5907     0.3284
  4 C      5.9880     6.0000     0.0120     4.1022     3.7863     0.3159
  5 O      8.4448     8.0000    -0.4448     2.2306     1.8356     0.3950
  6 C      6.2760     6.0000    -0.2760     3.9253     3.5946     0.3307
  7 C      5.9614     6.0000     0.0386     4.1656     3.8354     0.3302
  8 O      8.3020     8.0000    -0.3020     2.4053     1.9657     0.4395
  9 H      0.6655     1.0000     0.3345     0.9236     0.8748     0.0488
 10 H      0.8982     1.0000     0.1018     0.9674     0.9173     0.0501
 11 H      0.8840     1.0000     0.1160     0.9630     0.9131     0.0499
 12 H      0.8619     1.0000     0.1381     0.9826     0.9334     0.0492
 13 H      0.8684     1.0000     0.1316     0.9958     0.9460     0.0498
 14 H      0.8896     1.0000     0.1104     0.9766     0.9280     0.0486
 15 H      0.6867     1.0000     0.3133     0.9234     0.8720     0.0513
 16 H      0.8749     1.0000     0.1251     0.9952     0.9451     0.0500
 17 H      0.8604     1.0000     0.1396     0.9777     0.9286     0.0491
 18 H      0.8966     1.0000     0.1034     0.9668     0.9169     0.0500

  Mayer bond orders larger than 0.1
B(  0-O ,  1-C ) :   0.9490 B(  0-O ,  9-H ) :   0.8237 B(  1-C ,  2-C ) :   0.8856 
B(  1-C , 10-H ) :   0.9194 B(  1-C , 11-H ) :   0.9382 B(  2-C ,  3-C ) :   0.8541 
B(  2-C ,  6-C ) :   0.8586 B(  2-C ,  7-C ) :   0.8598 B(  3-C ,  4-C ) :   0.9111 
B(  3-C , 12-H ) :   0.9293 B(  3-C , 13-H ) :   0.9124 B(  4-C ,  5-O ) :   0.9875 
B(  4-C ,  6-C ) :   0.9093 B(  4-C , 14-H ) :   0.9392 B(  5-O , 15-H ) :   0.8383 
B(  6-C , 16-H ) :   0.9110 B(  6-C , 17-H ) :   0.9265 B(  7-C ,  8-O ) :   1.9179 
B(  7-C , 18-H ) :   0.9510 


-------
TIMINGS
-------

Total time                :  884.148 sec
Integral trafo            :    6.293 sec (  0.7%)
FC preparation            :    3.714 sec (  0.4%)
I/O of integrals          :    0.054 sec (  0.0%)
K(i,j) Operators          :    9.826 sec (  1.1%)
T(i,j) pair energies      :    0.935 sec (  0.1%)
V-calculation             :    0.018 sec (  0.0%)
V**(-1/2)                 :    0.117 sec (  0.0%)
Gamma(ia|P)               :    9.644 sec (  1.1%)
Gamma-Trafo               :    1.495 sec (  0.2%)
D(virtual)                :    3.628 sec (  0.4%)
D(internal)               :    3.591 sec (  0.4%)
W(virtual)                :    0.000 sec (  0.0%)
W(internal)               :    0.000 sec (  0.0%)
L(virtual)                :   10.417 sec (  1.2%)
L(internal)               :    0.216 sec (  0.0%)
G(D)                      :  106.625 sec ( 12.1%)
G(Z)                      :    0.000 sec (  0.0%)
Z-Vector Solution         :  726.830 sec ( 82.2%)
3-Index Derivative        :    0.000 sec (  0.0%)
2-Index Derivative        :    0.000 sec (  0.0%)
Separable Gradient (RIJ)  :    0.000 sec (  0.0%)
Separable Gradient (X)    :    0.000 sec (  0.0%)


---------------------------------------
MP2 TOTAL ENERGY:     -459.424960270 Eh
---------------------------------------

-------------------------   --------------------
FINAL SINGLE POINT ENERGY      -459.424960269828
-------------------------   --------------------


                            ***************************************
                            *     ORCA property calculations      *
                            ***************************************

                                    ---------------------
                                    Active property flags
                                    ---------------------
   (+) Dipole Moment


------------------------------------------------------------------------------
                       ORCA ELECTRIC PROPERTIES CALCULATION
------------------------------------------------------------------------------

Dipole Moment Calculation                       ... on
Quadrupole Moment Calculation                   ... off
Polarizability Calculation                      ... off
GBWName                                         ... dsgdb9nsd_104654.gbw
Electron density file                           ... dsgdb9nsd_104654.scfp.tmp

-------------
DIPOLE MOMENT
-------------
                                X             Y             Z
Electronic contribution:     -1.79986       2.02420       1.65423
Nuclear contribution   :      1.96925      -2.92611      -1.82750
                        -----------------------------------------
Total Dipole Moment    :      0.16938      -0.90191      -0.17327
                        -----------------------------------------
Magnitude (a.u.)       :      0.93389
Magnitude (Debye)      :      2.37377


                         *** MP2 UNRELAXED DENSITY ***

------------------------------------------------------------------------------
                       ORCA ELECTRIC PROPERTIES CALCULATION
------------------------------------------------------------------------------

Dipole Moment Calculation                       ... on
Quadrupole Moment Calculation                   ... off
Polarizability Calculation                      ... off
GBWName                                         ... dsgdb9nsd_104654.gbw
Electron density file                           ... dsgdb9nsd_104654.pmp2ur

-------------
DIPOLE MOMENT
-------------
                                X             Y             Z
Electronic contribution:     -1.79847       2.06525       1.66516
Nuclear contribution   :      1.96925      -2.92611      -1.82750
                        -----------------------------------------
Total Dipole Moment    :      0.17078      -0.86086      -0.16234
                        -----------------------------------------
Magnitude (a.u.)       :      0.89252
Magnitude (Debye)      :      2.26860


                           *** MP2 RELAXED DENSITY ***

------------------------------------------------------------------------------
                       ORCA ELECTRIC PROPERTIES CALCULATION
------------------------------------------------------------------------------

Dipole Moment Calculation                       ... on
Quadrupole Moment Calculation                   ... off
Polarizability Calculation                      ... off
GBWName                                         ... dsgdb9nsd_104654.gbw
Electron density file                           ... dsgdb9nsd_104654.pmp2re

-------------
DIPOLE MOMENT
-------------
                                X             Y             Z
Electronic contribution:     -1.80142       2.18918       1.72989
Nuclear contribution   :      1.96925      -2.92611      -1.82750
                        -----------------------------------------
Total Dipole Moment    :      0.16783      -0.73693      -0.09760
                        -----------------------------------------
Magnitude (a.u.)       :      0.76207
Magnitude (Debye)      :      1.93704


Timings for individual modules:

Sum of individual times         ...     1036.333 sec (=  17.272 min)
GTO integral calculation        ...        0.546 sec (=   0.009 min)   0.1 %
SCF iterations                  ...      151.503 sec (=   2.525 min)  14.6 %
MP2 module                      ...      884.284 sec (=  14.738 min)  85.3 %
                             ****ORCA TERMINATED NORMALLY****
TOTAL RUN TIME: 0 days 0 hours 17 minutes 16 seconds 818 msec
