
                                 *****************
                                 * O   R   C   A *
                                 *****************

           --- An Ab Initio, DFT and Semiempirical electronic structure package ---

                  #######################################################
                  #                        -***-                        #
                  #  Department of molecular theory and spectroscopy    #
                  #              Directorship: Frank Neese              #
                  # Max Planck Institute for Chemical Energy Conversion #
                  #                  D-45470 Muelheim/Ruhr              #
                  #                       Germany                       #
                  #                                                     #
                  #                  All rights reserved                #
                  #                        -***-                        #
                  #######################################################


                         Program Version 3.0.3 - RELEASE   -


 With contributions from (in alphabetic order):
   Ute Becker             : Parallelization
   Dmytro Bykov           : SCF Hessian
   Dmitry Ganyushin       : Spin-Orbit,Spin-Spin,Magnetic field MRCI
   Andreas Hansen         : Spin unrestricted coupled pair/coupled cluster methods
   Dimitrios Liakos       : Extrapolation schemes; parallel MDCI
   Robert Izsak           : Overlap fitted RIJCOSX, COSX-SCS-MP3
   Christian Kollmar      : KDIIS, OOCD, Brueckner-CCSD(T), CCSD density
   Simone Kossmann        : Meta GGA functionals, TD-DFT gradient, OOMP2, MP2 Hessian
   Taras Petrenko         : DFT Hessian,TD-DFT gradient, ASA and ECA modules, normal mode analysis, Resonance Raman, ABS, FL, XAS/XES, NRVS
   Christoph Reimann      : Effective Core Potentials
   Michael Roemelt        : Restricted open shell CIS
   Christoph Riplinger    : Improved optimizer, TS searches, QM/MM, DLPNO-CCSD
   Barbara Sandhoefer     : DKH picture change effects
   Igor Schapiro          : Molecular dynamics
   Kantharuban Sivalingam : CASSCF convergence, NEVPT2
   Boris Wezisla          : Elementary symmetry handling
   Frank Wennmohs         : Technical directorship


 We gratefully acknowledge several colleagues who have allowed us to
 interface, adapt or use parts of their codes:
   Stefan Grimme, W. Hujo, H. Kruse, T. Risthaus : VdW corrections, initial TS optimization,
                                                   DFT functionals, gCP
   Ed Valeev                                     : LibInt (2-el integral package), F12 methods
   Garnet Chan, S. Sharma, R. Olivares           : DMRG
   Ulf Ekstrom                                   : XCFun DFT Library
   Mihaly Kallay                                 : mrcc  (arbitrary order and MRCC methods)
   Andreas Klamt, Michael Diedenhofen            : otool_cosmo (COSMO solvation model)
   Frank Weinhold                                : gennbo (NPA and NBO analysis)
   Christopher J. Cramer and Donald G. Truhlar   : smd solvation model


 Your calculation uses the libint2 library for the computation of 2-el integrals
 For citations please refer to: http://libint.valeyev.net

 This ORCA versions uses:
   CBLAS   interface :  Fast vector & matrix operations
   LAPACKE interface :  Fast linear algebra routines
   SCALAPACK package :  Parallel linear algebra routines


Your calculation utilizes the basis: Ahlrichs-TZV
Cite in your paper:
H - Kr: A. Schaefer, H. Horn and R. Ahlrichs, J. Chem. Phys. 97, 2571 (1992).

The def2-TZV basis will be loaded
Cite in your paper:
 	F. Weigend, R. Ahlrichs, Phys. Chem. Chem. Phys. 2005, 7, 3297.

================================================================================
                                        WARNINGS
                       Please study these warnings very carefully!
================================================================================
Now building the actual basis set


INFO   : the flag for use of LIBINT has been found!

================================================================================
                                       INPUT FILE
================================================================================
NAME = dsgdb9nsd_115281.inp
|  1> ! RI-MP2 RIJK def2-TZVP def2-TZVP/C def2-TZVP/JK TIGHTSCF
|  2> % maxcore 2000
|  3> % mp2 density relaxed end
|  4> *xyz 0 1
|  5>  C        0.2217657730     1.3220571734     0.3747761822 
|  6>  C       -0.0467090578    -0.1446959713     0.0331734358 
|  7>  C       -1.5370127044    -0.4613940352    -0.1143463974 
|  8>  C       -1.8366892288    -1.9609246922    -0.2760267530 
|  9>  O       -2.0828835772    -2.3892744583     1.0524766869 
| 10>  C       -2.7215727257    -1.3086516486     1.7178997080 
| 11>  C       -4.2444883230    -1.3917775595     1.5704428492 
| 12>  C       -2.2767236797    -1.3122495839     3.1742400292 
| 13>  O       -2.2533586094    -0.1182503416     1.0748961544 
| 14>  H        1.2921054697     1.5094563200     0.5026704578 
| 15>  H       -0.1410945832     1.9856589967    -0.4184659567 
| 16>  H       -0.2899088023     1.5980313329     1.3003170351 
| 17>  H        0.4526728962    -0.4096509148    -0.9083508759 
| 18>  H        0.3717333055    -0.7985862215     0.8084287778 
| 19>  H       -1.9568398674     0.1232133732    -0.9436675832 
| 20>  H       -2.7095870257    -2.1311540036    -0.9229748723 
| 21>  H       -0.9929225426    -2.5336876096    -0.6691192717 
| 22>  H       -4.6275101716    -2.2890855974     2.0644273026 
| 23>  H       -4.7135271822    -0.5125998328     2.0202496989 
| 24>  H       -4.5282708700    -1.4251854753     0.5152892528 
| 25>  H       -1.1878141995    -1.2518340128     3.2273005573 
| 26>  H       -2.7065643762    -0.4557132191     3.6997246541 
| 27>  H       -2.6056976278    -2.2296421185     3.6697769578 
| 28> *
| 29> 
| 30>                          ****END OF INPUT****
================================================================================

                       ****************************
                       * Single Point Calculation *
                       ****************************

---------------------------------
CARTESIAN COORDINATES (ANGSTROEM)
---------------------------------
  C      0.221766    1.322057    0.374776
  C     -0.046709   -0.144696    0.033173
  C     -1.537013   -0.461394   -0.114346
  C     -1.836689   -1.960925   -0.276027
  O     -2.082884   -2.389274    1.052477
  C     -2.721573   -1.308652    1.717900
  C     -4.244488   -1.391778    1.570443
  C     -2.276724   -1.312250    3.174240
  O     -2.253359   -0.118250    1.074896
  H      1.292105    1.509456    0.502670
  H     -0.141095    1.985659   -0.418466
  H     -0.289909    1.598031    1.300317
  H      0.452673   -0.409651   -0.908351
  H      0.371733   -0.798586    0.808429
  H     -1.956840    0.123213   -0.943668
  H     -2.709587   -2.131154   -0.922975
  H     -0.992923   -2.533688   -0.669119
  H     -4.627510   -2.289086    2.064427
  H     -4.713527   -0.512600    2.020250
  H     -4.528271   -1.425185    0.515289
  H     -1.187814   -1.251834    3.227301
  H     -2.706564   -0.455713    3.699725
  H     -2.605698   -2.229642    3.669777

----------------------------
CARTESIAN COORDINATES (A.U.)
----------------------------
  NO LB      ZA    FRAG    MASS        X           Y           Z
   0 C     6.0000    0    12.011          0.419076576847348          2.498325991112040          0.708224345874573
   1 C     6.0000    0    12.011         -0.088267327215498         -0.273435758438729          0.062688708583219
   2 C     6.0000    0    12.011         -2.904533075673660         -0.871908366352822         -0.216083375486525
   3 C     6.0000    0    12.011         -3.470839635555029         -3.705610637501827         -0.521614968805526
   4 O     8.0000    0    15.999         -3.936079529750223         -4.515074384960052          1.988892700577785
   5 C     6.0000    0    12.011         -5.143027105122584         -2.472993220558550          3.246359973663287
   6 C     6.0000    0    12.011         -8.020920509096687         -2.630078426792290          2.967706893962991
   7 C     6.0000    0    12.011         -4.302384237246446         -2.479792332923118          5.998444338518197
   8 O     8.0000    0    15.999         -4.258230653279631         -0.223460760866635          2.031259354221133
   9 H     1.0000    0     1.008          2.441725473874684          2.852459055916599          0.949909500854820
  10 H     1.0000    0     1.008         -0.266630121227766          3.752351699119842         -0.790786054532349
  11 H     1.0000    0     1.008         -0.547848240160119          3.019841572606142          2.457243083611468
  12 H     1.0000    0     1.008          0.855427802066962         -0.774128039482308         -1.716534388958490
  13 H     1.0000    0     1.008          0.702474142252283         -1.509109252957975          1.527708988822677
  14 H     1.0000    0     1.008         -3.697891437324777          0.232839531384632         -1.783273293707347
  15 H     1.0000    0     1.008         -5.120377414599244         -4.027297416013825         -1.744169737137940
  16 H     1.0000    0     1.008         -1.876351677710757         -4.787975691053585         -1.264452174441844
  17 H     1.0000    0     1.008         -8.744726906258936         -4.325744876189521          3.901202225303776
  18 H     1.0000    0     1.008         -8.907275499151536         -0.968673300285824          3.817718653057869
  19 H     1.0000    0     1.008         -8.557191804513323         -2.693210238359391          0.973755567544915
  20 H     1.0000    0     1.008         -2.244643535037901         -2.365623449319671          6.098714205148430
  21 H     1.0000    0     1.008         -5.114665434845410         -0.861173179706651          6.991466367165533
  22 H     1.0000    0     1.008         -4.924054904350271         -4.213412980620995          6.934873422816686

--------------------------------
INTERNAL COORDINATES (ANGSTROEM)
--------------------------------
 C      0   0   0   0.000000     0.000     0.000
 C      1   0   0   1.529750     0.000     0.000
 C      2   1   0   1.530707   113.002     0.000
 C      3   2   1   1.537706   113.680   187.511
 O      4   3   2   1.417398   103.297    93.147
 C      5   4   3   1.420724   106.691    34.371
 C      6   5   4   1.532294   111.129    89.698
 C      6   5   4   1.522771   108.349   213.749
 O      3   2   1   1.430104   110.971   302.966
 H      1   2   3   1.094122   111.224   178.308
 H      1   2   3   1.096024   111.150   298.361
 H      1   2   3   1.092977   110.428    57.904
 H      2   1   3   1.098204   110.058   120.913
 H      2   1   3   1.097127   110.287   238.462
 H      3   2   1   1.098087   109.565    62.121
 H      4   3   2   1.099759   111.560   213.052
 H      4   3   2   1.092942   113.479   336.203
 H      7   6   5   1.093567   110.435    64.162
 H      7   6   5   1.093287   110.070   184.423
 H      7   6   5   1.093160   110.644   303.810
 H      8   6   5   1.091874   109.736    56.754
 H      8   6   5   1.092955   110.064   176.700
 H      8   6   5   1.093339   110.337   296.714

---------------------------
INTERNAL COORDINATES (A.U.)
---------------------------
 C      0   0   0   0.000000     0.000     0.000
 C      1   0   0   2.890809     0.000     0.000
 C      2   1   0   2.892618   113.002     0.000
 C      3   2   1   2.905843   113.680   187.511
 O      4   3   2   2.678494   103.297    93.147
 C      5   4   3   2.684780   106.691    34.371
 C      6   5   4   2.895616   111.129    89.698
 C      6   5   4   2.877620   108.349   213.749
 O      3   2   1   2.702505   110.971   302.966
 H      1   2   3   2.067591   111.224   178.308
 H      1   2   3   2.071185   111.150   298.361
 H      1   2   3   2.065427   110.428    57.904
 H      2   1   3   2.075304   110.058   120.913
 H      2   1   3   2.073269   110.287   238.462
 H      3   2   1   2.075083   109.565    62.121
 H      4   3   2   2.078244   111.560   213.052
 H      4   3   2   2.065360   113.479   336.203
 H      7   6   5   2.066542   110.435    64.162
 H      7   6   5   2.066014   110.070   184.423
 H      7   6   5   2.065772   110.644   303.810
 H      8   6   5   2.063343   109.736    56.754
 H      8   6   5   2.065387   110.064   176.700
 H      8   6   5   2.066111   110.337   296.714

---------------------
BASIS SET INFORMATION
---------------------
There are 3 groups of distinct atoms

 Group   1 Type C   : 11s6p2d1f contracted to 5s3p2d1f pattern {62111/411/11/1}
 Group   2 Type O   : 11s6p2d1f contracted to 5s3p2d1f pattern {62111/411/11/1}
 Group   3 Type H   : 5s1p contracted to 3s1p pattern {311/1}

Atom   0C    basis set group =>   1
Atom   1C    basis set group =>   1
Atom   2C    basis set group =>   1
Atom   3C    basis set group =>   1
Atom   4O    basis set group =>   2
Atom   5C    basis set group =>   1
Atom   6C    basis set group =>   1
Atom   7C    basis set group =>   1
Atom   8O    basis set group =>   2
Atom   9H    basis set group =>   3
Atom  10H    basis set group =>   3
Atom  11H    basis set group =>   3
Atom  12H    basis set group =>   3
Atom  13H    basis set group =>   3
Atom  14H    basis set group =>   3
Atom  15H    basis set group =>   3
Atom  16H    basis set group =>   3
Atom  17H    basis set group =>   3
Atom  18H    basis set group =>   3
Atom  19H    basis set group =>   3
Atom  20H    basis set group =>   3
Atom  21H    basis set group =>   3
Atom  22H    basis set group =>   3
-------------------------------
AUXILIARY BASIS SET INFORMATION
-------------------------------
There are 3 groups of distinct atoms

 Group   1 Type C   : 14s10p6d2f1g contracted to 10s8p5d1f1g pattern {5111111111/31111111/21111/2/1}
 Group   2 Type O   : 14s10p6d2f1g contracted to 10s8p4d2f1g pattern {5111111111/31111111/3111/11/1}
 Group   3 Type H   : 4s2p2d contracted to 2s2p2d pattern {31/11/11}

Atom   0C    basis set group =>   1
Atom   1C    basis set group =>   1
Atom   2C    basis set group =>   1
Atom   3C    basis set group =>   1
Atom   4O    basis set group =>   2
Atom   5C    basis set group =>   1
Atom   6C    basis set group =>   1
Atom   7C    basis set group =>   1
Atom   8O    basis set group =>   2
Atom   9H    basis set group =>   3
Atom  10H    basis set group =>   3
Atom  11H    basis set group =>   3
Atom  12H    basis set group =>   3
Atom  13H    basis set group =>   3
Atom  14H    basis set group =>   3
Atom  15H    basis set group =>   3
Atom  16H    basis set group =>   3
Atom  17H    basis set group =>   3
Atom  18H    basis set group =>   3
Atom  19H    basis set group =>   3
Atom  20H    basis set group =>   3
Atom  21H    basis set group =>   3
Atom  22H    basis set group =>   3
------------------------------------------------------------------------------
                           ORCA GTO INTEGRAL CALCULATION
                           -- RI-GTO INTEGRALS CHOSEN --
------------------------------------------------------------------------------

                         BASIS SET STATISTICS AND STARTUP INFO

Gaussian basis set:
 # of primitive gaussian shells          ...  264
 # of primitive gaussian functions       ...  526
 # of contracted shells                  ...  155
 # of contracted basis functions         ...  363
 Highest angular momentum                ...    3
 Maximum contraction depth               ...    6
Auxiliary gaussian basis set:
 # of primitive gaussian shells          ...  409
 # of primitive gaussian functions       ... 1153
 # of contracted shells                  ...  309
 # of contracted aux-basis functions     ...  931
 Highest angular momentum                ...    4
 Maximum contraction depth               ...    5
Ratio of auxiliary to basis functions    ...  2.56
Integral package used                  ... LIBINT
 One Electron integrals                  ... done
 Ordering auxiliary basis shells         ... done
 Integral threshhold             Thresh  ...  2.500e-11
 Primitive cut-off               TCut    ...  2.500e-12
 Pre-screening matrix                    ... done
 Shell pair data                         ... 
 Ordering of the shell pairs             ... done (   0.003 sec) 10981 of 12090 pairs
 Determination of significant pairs      ... done (   0.000 sec)
 Creation of shell pair data             ... done (   0.003 sec)
 Storage of shell pair data              ... done (   0.003 sec)
 Shell pair data done in (   0.009 sec)
 Computing two index integrals           ... done
 Cholesky decomposition of the V-matrix  ... done


Timings:
 Total evaluation time                   ...   0.674 sec (  0.011 min)
 One electron matrix time                ...   0.192 sec (  0.003 min) = 28.5%
 Schwartz matrix evaluation time         ...   0.334 sec (  0.006 min) = 49.6%
 Two index repulsion integral time       ...   0.035 sec (  0.001 min) =  5.2%
 Cholesky decomposition of V             ...   0.075 sec (  0.001 min) = 11.1%
 Three index repulsion integral time     ...   0.000 sec (  0.000 min) =  0.0%

-------------------------------------------------------------------------------
                                 ORCA SCF
-------------------------------------------------------------------------------

------------
SCF SETTINGS
------------
Hamiltonian:
 Ab initio Hamiltonian  Method          .... Hartree-Fock(GTOs)
 RI-approximation to the Coulomb term is turned on
   Number of auxiliary basis functions  .... 931
   RI-JK (J+K treated both via RI)      .... on


General Settings:
 Integral files         IntName         .... dsgdb9nsd_115281
 Hartree-Fock type      HFTyp           .... RHF
 Total Charge           Charge          ....    0
 Multiplicity           Mult            ....    1
 Number of Electrons    NEL             ....   72
 Basis Dimension        Dim             ....  363
 Nuclear Repulsion      ENuc            ....    512.7373678353 Eh

Convergence Acceleration:
 DIIS                   CNVDIIS         .... on
   Start iteration      DIISMaxIt       ....    12
   Startup error        DIISStart       ....  0.200000
   # of expansion vecs  DIISMaxEq       ....     5
   Bias factor          DIISBfac        ....   1.050
   Max. coefficient     DIISMaxC        ....  10.000
 Newton-Raphson         CNVNR           .... off
 SOSCF                  CNVSOSCF        .... on
   Start iteration      SOSCFMaxIt      ....   150
   Startup grad/error   SOSCFStart      ....  0.003300
 Level Shifting         CNVShift        .... on
   Level shift para.    LevelShift      ....    0.2500
   Turn off err/grad.   ShiftErr        ....    0.0010
 Zerner damping         CNVZerner       .... off
 Static damping         CNVDamp         .... on
   Fraction old density DampFac         ....    0.7000
   Max. Damping (<1)    DampMax         ....    0.9800
   Min. Damping (>=0)   DampMin         ....    0.0000
   Turn off err/grad.   DampErr         ....    0.1000
 Fernandez-Rico         CNVRico         .... off

SCF Procedure:
 Maximum # iterations   MaxIter         ....   125
 SCF integral mode      SCFMode         .... Direct
   Integral package                     .... LIBINT
 Reset frequeny         DirectResetFreq ....    20
 Integral Threshold     Thresh          ....  2.500e-11 Eh
 Primitive CutOff       TCut            ....  2.500e-12 Eh

Convergence Tolerance:
 Convergence Check Mode ConvCheckMode   .... Total+1el-Energy
 Energy Change          TolE            ....  1.000e-08 Eh
 1-El. energy change                    ....  1.000e-05 Eh
 Orbital Gradient       TolG            ....  1.000e-05
 Orbital Rotation angle TolX            ....  1.000e-05
 DIIS Error             TolErr          ....  5.000e-07


Diagonalization of the overlap matrix:
Smallest eigenvalue                        ... 1.228e-04
Time for diagonalization                   ...    0.063 sec
Threshold for overlap eigenvalues          ... 1.000e-08
Number of eigenvalues below threshold      ... 0
Time for construction of square roots      ...    0.042 sec
Total time needed                          ...    0.105 sec

-------------------
DFT GRID GENERATION
-------------------

General Integration Accuracy     IntAcc      ...  4.340
Radial Grid Type                 RadialGrid  ... Gauss-Chebyshev
Angular Grid (max. acc.)         AngularGrid ... Lebedev-110
Angular grid pruning method      GridPruning ... 3 (G Style)
Weight generation scheme         WeightScheme... Becke
Basis function cutoff            BFCut       ...    1.0000e-11
Integration weight cutoff        WCut        ...    1.0000e-14
Grids for H and He will be reduced by one unit

# of grid points (after initial pruning)     ...  26140 (   0.0 sec)
# of grid points (after weights+screening)   ...  23705 (   0.2 sec)
nearest neighbour list constructed           ...    0.0 sec
Grid point re-assignment to atoms done       ...    0.0 sec
Grid point division into batches done        ...    0.0 sec
Reduced shell lists constructed in    2.2 sec

Total number of grid points                  ...    23705
Total number of batches                      ...      379
Average number of points per batch           ...       62
Average number of grid points per atom       ...     1031
Average number of shells per batch           ...   102.24 (65.96%)
Average number of basis functions per batch  ...   243.49 (67.08%)
Average number of large shells per batch     ...    77.94 (76.24%)
Average number of large basis fcns per batch ...   182.69 (75.03%)
Average number of aux-shells per batch       ...   102.24 (33.09%)
Average number of aux functions per batch    ...   243.49 (  inf%)
Maximum spatial batch extension              ...  20.93, 20.48, 20.13 au
Average spatial batch extension              ...   3.58,  3.59,  3.40 au

Time for grid setup =    2.486 sec

------------------------------
INITIAL GUESS: MODEL POTENTIAL
------------------------------
Loading Hartree-Fock densities                     ... done
Calculating cut-offs                               ... done
Setting up the integral package                    ... done
Initializing the effective Hamiltonian             ... done
Starting the Coulomb interaction                   ... done (   1.4 sec)
Reading the grid                                   ... done
Mapping shells                                     ... done
Starting the XC term evaluation                    ... done (   1.4 sec)
Transforming the Hamiltonian                       ... done (   0.0 sec)
Diagonalizing the Hamiltonian                      ... done (   0.1 sec)
Back transforming the eigenvectors                 ... done (   0.0 sec)
Now organizing SCF variables                       ... done
                      ------------------
                      INITIAL GUESS DONE (   5.5 sec)
                      ------------------
--------------
SCF ITERATIONS
--------------
ITER       Energy         Delta-E        Max-DP      RMS-DP      [F,P]     Damp
  0   -422.6599586703   0.000000000000 0.03391460  0.00070134  0.2959195 0.7000
  1   -422.5123479099   0.147610760370 0.03395385  0.00073948  0.2478192 0.7000
                               ***Turning on DIIS***
  2   -422.5685122883  -0.056164378433 0.02393012  0.00054539  0.1807617 0.7000
  3   -423.9166366747  -1.348124386358 0.01391093  0.00030542  0.1265907 0.7000
  4   -423.0698514439   0.846785230794 0.03751328  0.00070344  0.0839092 0.0000
  5   -423.0066767533   0.063174690632 0.00838381  0.00017879  0.0196493 0.0000
  6   -422.9567341815   0.049942571787 0.00481510  0.00009529  0.0121216 0.0000
  7   -422.9942138354  -0.037479653882 0.00296712  0.00006217  0.0083315 0.0000
  8   -423.0026326507  -0.008418815327 0.00288012  0.00004700  0.0040237 0.0000
                      *** Initiating the SOSCF procedure ***
                           *** Shutting down DIIS ***
                      *** Re-Reading the Fockian *** 
                      *** Removing any level shift *** 
ITER      Energy       Delta-E        Grad      Rot      Max-DP    RMS-DP
  9   -423.10532757  -0.1026949227  0.000120  0.000120  0.000430  0.000011
 10   -423.11134923  -0.0060216525  0.000020  0.000022  0.000077  0.000003
 11   -423.11134932  -0.0000000896  0.000011  0.000017  0.000042  0.000001
                  ***Gradient check signals convergence***
              ***Rediagonalizing the Fockian in SOSCF/NRSCF***

               *****************************************************
               *                     SUCCESS                       *
               *           SCF CONVERGED AFTER  12 CYCLES          *
               *****************************************************


----------------
TOTAL SCF ENERGY
----------------

Total Energy       :         -423.11134933 Eh          -11513.44515 eV

Components:
Nuclear Repulsion  :          512.73736784 Eh           13952.29310 eV
Electronic Energy  :         -935.84871717 Eh          -25465.73825 eV

One Electron Energy:        -1593.92210971 Eh          -43372.82564 eV
Two Electron Energy:          658.07339255 Eh           17907.08739 eV

Virial components:
Potential Energy   :         -845.65929707 Eh          -23011.55936 eV
Kinetic Energy     :          422.54794774 Eh           11498.11421 eV
Virial Ratio       :            2.00133334


---------------
SCF CONVERGENCE
---------------

  Last Energy change         ...   -1.5186e-08  Tolerance :   1.0000e-08
  Last MAX-Density change    ...    7.8058e-06  Tolerance :   1.0000e-07
  Last RMS-Density change    ...    1.3217e-07  Tolerance :   5.0000e-09
  Last Orbital Gradient      ...    1.3215e-06  Tolerance :   1.0000e-05
  Last Orbital Rotation      ...    1.6981e-06  Tolerance :   1.0000e-05

             **** THE GBW FILE WAS UPDATED (dsgdb9nsd_115281.gbw) ****
             **** DENSITY FILE WAS UPDATED (dsgdb9nsd_115281.scfp.tmp) ****
             **** ENERGY FILE WAS UPDATED (dsgdb9nsd_115281.en.tmp) ****
----------------
ORBITAL ENERGIES
----------------

  NO   OCC          E(Eh)            E(eV) 
   0   2.0000     -20.559110      -559.4418 
   1   2.0000     -20.550876      -559.2178 
   2   2.0000     -11.333898      -308.4110 
   3   2.0000     -11.280579      -306.9602 
   4   2.0000     -11.278072      -306.8919 
   5   2.0000     -11.221055      -305.3404 
   6   2.0000     -11.212879      -305.1180 
   7   2.0000     -11.211288      -305.0746 
   8   2.0000     -11.209440      -305.0244 
   9   2.0000      -1.431672       -38.9578 
  10   2.0000      -1.325014       -36.0555 
  11   2.0000      -1.084422       -29.5086 
  12   2.0000      -1.024711       -27.8838 
  13   2.0000      -0.958996       -26.0956 
  14   2.0000      -0.940822       -25.6011 
  15   2.0000      -0.866838       -23.5879 
  16   2.0000      -0.804538       -21.8926 
  17   2.0000      -0.780420       -21.2363 
  18   2.0000      -0.690152       -18.7800 
  19   2.0000      -0.669818       -18.2267 
  20   2.0000      -0.647170       -17.6104 
  21   2.0000      -0.615584       -16.7509 
  22   2.0000      -0.600779       -16.3480 
  23   2.0000      -0.581899       -15.8343 
  24   2.0000      -0.573019       -15.5926 
  25   2.0000      -0.546194       -14.8627 
  26   2.0000      -0.536003       -14.5854 
  27   2.0000      -0.530905       -14.4467 
  28   2.0000      -0.518971       -14.1219 
  29   2.0000      -0.514689       -14.0054 
  30   2.0000      -0.506560       -13.7842 
  31   2.0000      -0.499977       -13.6051 
  32   2.0000      -0.481431       -13.1004 
  33   2.0000      -0.466045       -12.6817 
  34   2.0000      -0.425668       -11.5830 
  35   2.0000      -0.408212       -11.1080 
  36   0.0000       0.136158         3.7051 
  37   0.0000       0.155198         4.2232 
  38   0.0000       0.156717         4.2645 
  39   0.0000       0.172151         4.6845 
  40   0.0000       0.197157         5.3649 
  41   0.0000       0.199462         5.4276 
  42   0.0000       0.208337         5.6691 
  43   0.0000       0.210369         5.7244 
  44   0.0000       0.225752         6.1430 
  45   0.0000       0.230270         6.2660 
  46   0.0000       0.244469         6.6524 
  47   0.0000       0.246960         6.7201 
  48   0.0000       0.248826         6.7709 
  49   0.0000       0.264886         7.2079 
  50   0.0000       0.274773         7.4770 
  51   0.0000       0.280176         7.6240 
  52   0.0000       0.293786         7.9943 
  53   0.0000       0.302474         8.2307 
  54   0.0000       0.307785         8.3752 
  55   0.0000       0.316642         8.6163 
  56   0.0000       0.322953         8.7880 
  57   0.0000       0.330318         8.9884 
  58   0.0000       0.343877         9.3574 
  59   0.0000       0.357835         9.7372 
  60   0.0000       0.373331        10.1589 
  61   0.0000       0.388188        10.5631 
  62   0.0000       0.404410        11.0045 
  63   0.0000       0.413976        11.2648 
  64   0.0000       0.430144        11.7048 
  65   0.0000       0.452819        12.3218 
  66   0.0000       0.463995        12.6259 
  67   0.0000       0.478988        13.0339 
  68   0.0000       0.482046        13.1171 
  69   0.0000       0.505150        13.7458 
  70   0.0000       0.514446        13.9988 
  71   0.0000       0.519957        14.1487 
  72   0.0000       0.526474        14.3261 
  73   0.0000       0.537873        14.6363 
  74   0.0000       0.555336        15.1115 
  75   0.0000       0.569241        15.4898 
  76   0.0000       0.577589        15.7170 
  77   0.0000       0.584645        15.9090 
  78   0.0000       0.585604        15.9351 
  79   0.0000       0.597178        16.2500 
  80   0.0000       0.598482        16.2855 
  81   0.0000       0.617483        16.8026 
  82   0.0000       0.621439        16.9102 
  83   0.0000       0.626792        17.0559 
  84   0.0000       0.640527        17.4296 
  85   0.0000       0.647971        17.6322 
  86   0.0000       0.658040        17.9062 
  87   0.0000       0.667240        18.1565 
  88   0.0000       0.671471        18.2717 
  89   0.0000       0.674096        18.3431 
  90   0.0000       0.680909        18.5285 
  91   0.0000       0.688486        18.7347 
  92   0.0000       0.703112        19.1326 
  93   0.0000       0.716007        19.4835 
  94   0.0000       0.736200        20.0330 
  95   0.0000       0.741610        20.1802 
  96   0.0000       0.769556        20.9407 
  97   0.0000       0.778629        21.1876 
  98   0.0000       0.785761        21.3817 
  99   0.0000       0.798331        21.7237 
 100   0.0000       0.812322        22.1044 
 101   0.0000       0.824468        22.4349 
 102   0.0000       0.860585        23.4177 
 103   0.0000       0.869672        23.6650 
 104   0.0000       0.915925        24.9236 
 105   0.0000       0.925522        25.1847 
 106   0.0000       0.973467        26.4894 
 107   0.0000       0.985477        26.8162 
 108   0.0000       1.005580        27.3632 
 109   0.0000       1.009147        27.4603 
 110   0.0000       1.023918        27.8622 
 111   0.0000       1.029428        28.0121 
 112   0.0000       1.064403        28.9639 
 113   0.0000       1.070895        29.1405 
 114   0.0000       1.090311        29.6689 
 115   0.0000       1.107352        30.1326 
 116   0.0000       1.115378        30.3510 
 117   0.0000       1.138936        30.9920 
 118   0.0000       1.152612        31.3642 
 119   0.0000       1.160013        31.5656 
 120   0.0000       1.167146        31.7597 
 121   0.0000       1.183470        32.2039 
 122   0.0000       1.209353        32.9082 
 123   0.0000       1.224478        33.3197 
 124   0.0000       1.242501        33.8102 
 125   0.0000       1.271246        34.5924 
 126   0.0000       1.289465        35.0881 
 127   0.0000       1.308065        35.5943 
 128   0.0000       1.322231        35.9797 
 129   0.0000       1.344271        36.5795 
 130   0.0000       1.358731        36.9730 
 131   0.0000       1.366501        37.1844 
 132   0.0000       1.409783        38.3621 
 133   0.0000       1.415830        38.5267 
 134   0.0000       1.430512        38.9262 
 135   0.0000       1.447987        39.4017 
 136   0.0000       1.467747        39.9394 
 137   0.0000       1.485770        40.4299 
 138   0.0000       1.498590        40.7787 
 139   0.0000       1.520045        41.3625 
 140   0.0000       1.524955        41.4961 
 141   0.0000       1.545785        42.0629 
 142   0.0000       1.560077        42.4519 
 143   0.0000       1.596447        43.4415 
 144   0.0000       1.716296        46.7028 
 145   0.0000       1.753376        47.7118 
 146   0.0000       1.778767        48.4027 
 147   0.0000       1.791916        48.7605 
 148   0.0000       1.799195        48.9586 
 149   0.0000       1.806386        49.1543 
 150   0.0000       1.814767        49.3823 
 151   0.0000       1.823089        49.6088 
 152   0.0000       1.848074        50.2887 
 153   0.0000       1.852203        50.4010 
 154   0.0000       1.870842        50.9082 
 155   0.0000       1.875924        51.0465 
 156   0.0000       1.882902        51.2364 
 157   0.0000       1.894716        51.5578 
 158   0.0000       1.898924        51.6723 
 159   0.0000       1.913549        52.0703 
 160   0.0000       1.924518        52.3688 
 161   0.0000       1.948261        53.0149 
 162   0.0000       1.964822        53.4655 
 163   0.0000       1.977207        53.8025 
 164   0.0000       1.983806        53.9821 
 165   0.0000       2.025913        55.1279 
 166   0.0000       2.046189        55.6796 
 167   0.0000       2.061257        56.0896 
 168   0.0000       2.073247        56.4159 
 169   0.0000       2.079405        56.5835 
 170   0.0000       2.128386        57.9163 
 171   0.0000       2.135706        58.1155 
 172   0.0000       2.168968        59.0206 
 173   0.0000       2.187504        59.5250 
 174   0.0000       2.216567        60.3158 
 175   0.0000       2.224221        60.5241 
 176   0.0000       2.242207        61.0136 
 177   0.0000       2.253509        61.3211 
 178   0.0000       2.262031        61.5530 
 179   0.0000       2.272044        61.8255 
 180   0.0000       2.294264        62.4301 
 181   0.0000       2.317665        63.0669 
 182   0.0000       2.346971        63.8643 
 183   0.0000       2.369816        64.4860 
 184   0.0000       2.378429        64.7203 
 185   0.0000       2.409333        65.5613 
 186   0.0000       2.413274        65.6685 
 187   0.0000       2.436748        66.3073 
 188   0.0000       2.444564        66.5200 
 189   0.0000       2.447319        66.5949 
 190   0.0000       2.474034        67.3219 
 191   0.0000       2.501448        68.0679 
 192   0.0000       2.504606        68.1538 
 193   0.0000       2.575775        70.0904 
 194   0.0000       2.593468        70.5719 
 195   0.0000       2.609613        71.0112 
 196   0.0000       2.611089        71.0514 
 197   0.0000       2.628133        71.5151 
 198   0.0000       2.642155        71.8967 
 199   0.0000       2.652026        72.1653 
 200   0.0000       2.658370        72.3379 
 201   0.0000       2.665246        72.5250 
 202   0.0000       2.680794        72.9481 
 203   0.0000       2.688624        73.1612 
 204   0.0000       2.707147        73.6652 
 205   0.0000       2.718510        73.9744 
 206   0.0000       2.720690        74.0337 
 207   0.0000       2.735714        74.4426 
 208   0.0000       2.754061        74.9418 
 209   0.0000       2.780502        75.6613 
 210   0.0000       2.796826        76.1055 
 211   0.0000       2.816494        76.6407 
 212   0.0000       2.839486        77.2663 
 213   0.0000       2.845500        77.4300 
 214   0.0000       2.864287        77.9412 
 215   0.0000       2.872640        78.1685 
 216   0.0000       2.895709        78.7963 
 217   0.0000       2.896951        78.8301 
 218   0.0000       2.911729        79.2322 
 219   0.0000       2.915104        79.3240 
 220   0.0000       2.933648        79.8286 
 221   0.0000       2.938917        79.9720 
 222   0.0000       2.954358        80.3922 
 223   0.0000       2.961087        80.5753 
 224   0.0000       2.989868        81.3585 
 225   0.0000       3.001365        81.6713 
 226   0.0000       3.024110        82.2902 
 227   0.0000       3.044663        82.8495 
 228   0.0000       3.069105        83.5146 
 229   0.0000       3.083732        83.9126 
 230   0.0000       3.089089        84.0584 
 231   0.0000       3.101797        84.4042 
 232   0.0000       3.105903        84.5159 
 233   0.0000       3.140525        85.4580 
 234   0.0000       3.144278        85.5602 
 235   0.0000       3.200080        87.0786 
 236   0.0000       3.222034        87.6760 
 237   0.0000       3.248900        88.4071 
 238   0.0000       3.257980        88.6541 
 239   0.0000       3.260987        88.7360 
 240   0.0000       3.313308        90.1597 
 241   0.0000       3.322693        90.4151 
 242   0.0000       3.368780        91.6692 
 243   0.0000       3.404072        92.6295 
 244   0.0000       3.410433        92.8026 
 245   0.0000       3.431794        93.3839 
 246   0.0000       3.447814        93.8198 
 247   0.0000       3.451430        93.9182 
 248   0.0000       3.460653        94.1692 
 249   0.0000       3.485005        94.8318 
 250   0.0000       3.490895        94.9921 
 251   0.0000       3.500719        95.2594 
 252   0.0000       3.536103        96.2222 
 253   0.0000       3.547391        96.5294 
 254   0.0000       3.559738        96.8654 
 255   0.0000       3.575403        97.2917 
 256   0.0000       3.589263        97.6688 
 257   0.0000       3.603991        98.0696 
 258   0.0000       3.624446        98.6262 
 259   0.0000       3.629328        98.7590 
 260   0.0000       3.651494        99.3622 
 261   0.0000       3.663639        99.6927 
 262   0.0000       3.670838        99.8886 
 263   0.0000       3.674727        99.9944 
 264   0.0000       3.685150       100.2780 
 265   0.0000       3.716563       101.1328 
 266   0.0000       3.735402       101.6454 
 267   0.0000       3.744389       101.8900 
 268   0.0000       3.756454       102.2183 
 269   0.0000       3.771089       102.6165 
 270   0.0000       3.782016       102.9139 
 271   0.0000       3.796209       103.3001 
 272   0.0000       3.824184       104.0613 
 273   0.0000       3.834500       104.3421 
 274   0.0000       3.849298       104.7447 
 275   0.0000       3.864922       105.1699 
 276   0.0000       3.887695       105.7896 
 277   0.0000       3.899090       106.0996 
 278   0.0000       3.921473       106.7087 
 279   0.0000       3.925241       106.8112 
 280   0.0000       3.933073       107.0243 
 281   0.0000       3.944041       107.3228 
 282   0.0000       3.972576       108.0993 
 283   0.0000       4.003228       108.9334 
 284   0.0000       4.026608       109.5696 
 285   0.0000       4.061647       110.5230 
 286   0.0000       4.099487       111.5527 
 287   0.0000       4.110491       111.8521 
 288   0.0000       4.143418       112.7481 
 289   0.0000       4.171408       113.5098 
 290   0.0000       4.198989       114.2603 
 291   0.0000       4.230449       115.1164 
 292   0.0000       4.256682       115.8302 
 293   0.0000       4.271601       116.2362 
 294   0.0000       4.299024       116.9824 
 295   0.0000       4.316148       117.4484 
 296   0.0000       4.348127       118.3186 
 297   0.0000       4.373909       119.0201 
 298   0.0000       4.382704       119.2595 
 299   0.0000       4.404976       119.8655 
 300   0.0000       4.420920       120.2993 
 301   0.0000       4.451969       121.1442 
 302   0.0000       4.470814       121.6570 
 303   0.0000       4.502320       122.5144 
 304   0.0000       4.537605       123.4745 
 305   0.0000       4.577657       124.5644 
 306   0.0000       4.580292       124.6361 
 307   0.0000       4.621171       125.7485 
 308   0.0000       4.701668       127.9389 
 309   0.0000       4.729039       128.6837 
 310   0.0000       4.746677       129.1636 
 311   0.0000       4.772221       129.8587 
 312   0.0000       4.786600       130.2500 
 313   0.0000       4.813285       130.9761 
 314   0.0000       4.832701       131.5045 
 315   0.0000       4.876310       132.6911 
 316   0.0000       4.907233       133.5326 
 317   0.0000       4.932281       134.2142 
 318   0.0000       4.957674       134.9052 
 319   0.0000       4.980463       135.5253 
 320   0.0000       4.999810       136.0518 
 321   0.0000       5.118708       139.2871 
 322   0.0000       5.135359       139.7402 
 323   0.0000       5.214252       141.8870 
 324   0.0000       5.233973       142.4237 
 325   0.0000       5.257875       143.0741 
 326   0.0000       5.302823       144.2971 
 327   0.0000       5.328877       145.0061 
 328   0.0000       5.417324       147.4129 
 329   0.0000       5.444310       148.1472 
 330   0.0000       5.831961       158.6957 
 331   0.0000       5.909751       160.8125 
 332   0.0000       5.970908       162.4767 
 333   0.0000       6.001455       163.3079 
 334   0.0000       6.230570       169.5424 
 335   0.0000       6.239483       169.7850 
 336   0.0000       6.294729       171.2883 
 337   0.0000       6.357688       173.0015 
 338   0.0000       6.372483       173.4041 
 339   0.0000       6.389301       173.8617 
 340   0.0000       6.521828       177.4680 
 341   0.0000       6.658602       181.1898 
 342   0.0000       6.667626       181.4353 
 343   0.0000       6.799063       185.0119 
 344   0.0000       7.232910       196.8175 
 345   0.0000       7.300845       198.6661 
 346   0.0000       7.356438       200.1789 
 347   0.0000       7.426970       202.0981 
 348   0.0000       7.485119       203.6804 
 349   0.0000       7.577355       206.1903 
 350   0.0000       7.745369       210.7622 
 351   0.0000       7.780129       211.7081 
 352   0.0000       7.844929       213.4714 
 353   0.0000       7.958285       216.5559 
 354   0.0000      23.423887       637.3964 
 355   0.0000      23.460022       638.3797 
 356   0.0000      23.501113       639.4978 
 357   0.0000      23.549060       640.8025 
 358   0.0000      23.609691       642.4523 
 359   0.0000      23.683212       644.4530 
 360   0.0000      23.865110       649.4027 
 361   0.0000      45.910186      1249.2797 
 362   0.0000      45.981178      1251.2115 

                    ********************************
                    * MULLIKEN POPULATION ANALYSIS *
                    ********************************

-----------------------
MULLIKEN ATOMIC CHARGES
-----------------------
   0 C :   -0.328548
   1 C :   -0.201998
   2 C :    0.213107
   3 C :    0.010629
   4 O :   -0.432026
   5 C :    0.463925
   6 C :   -0.338812
   7 C :   -0.321338
   8 O :   -0.452697
   9 H :    0.106512
  10 H :    0.090172
  11 H :    0.122157
  12 H :    0.078662
  13 H :    0.096947
  14 H :    0.071721
  15 H :    0.082483
  16 H :    0.103773
  17 H :    0.106315
  18 H :    0.110442
  19 H :    0.098754
  20 H :    0.107379
  21 H :    0.104159
  22 H :    0.108282
Sum of atomic charges:    0.0000000

--------------------------------
MULLIKEN REDUCED ORBITAL CHARGES
--------------------------------
  0 C s       :     3.217921  s :     3.217921
      pz      :     1.054799  p :     3.031796
      px      :     1.042506
      py      :     0.934492
      dz2     :     0.011862  d :     0.074259
      dxz     :     0.009049
      dyz     :     0.021635
      dx2y2   :     0.019739
      dxy     :     0.011974
      f0      :     0.000287  f :     0.004572
      f+1     :     0.000813
      f-1     :     0.000830
      f+2     :     0.000737
      f-2     :     0.000221
      f+3     :     0.000972
      f-3     :     0.000711
  1 C s       :     3.177521  s :     3.177521
      pz      :     1.001033  p :     2.907844
      px      :     0.928925
      py      :     0.977887
      dz2     :     0.015148  d :     0.110013
      dxz     :     0.017945
      dyz     :     0.024640
      dx2y2   :     0.026857
      dxy     :     0.025423
      f0      :     0.000588  f :     0.006620
      f+1     :     0.000985
      f-1     :     0.000887
      f+2     :     0.001050
      f-2     :     0.000294
      f+3     :     0.001454
      f-3     :     0.001362
  2 C s       :     3.043973  s :     3.043973
      pz      :     0.765725  p :     2.555972
      px      :     0.868545
      py      :     0.921702
      dz2     :     0.038502  d :     0.173198
      dxz     :     0.040752
      dyz     :     0.028730
      dx2y2   :     0.041126
      dxy     :     0.024088
      f0      :     0.002729  f :     0.013750
      f+1     :     0.002234
      f-1     :     0.001819
      f+2     :     0.002263
      f-2     :     0.001454
      f+3     :     0.001632
      f-3     :     0.001619
  3 C s       :     3.167361  s :     3.167361
      pz      :     0.733148  p :     2.674934
      px      :     1.019960
      py      :     0.921826
      dz2     :     0.028427  d :     0.135636
      dxz     :     0.043110
      dyz     :     0.027586
      dx2y2   :     0.018321
      dxy     :     0.018191
      f0      :     0.003087  f :     0.011440
      f+1     :     0.002076
      f-1     :     0.001938
      f+2     :     0.001392
      f-2     :     0.001007
      f+3     :     0.000772
      f-3     :     0.001169
  4 O s       :     3.789353  s :     3.789353
      pz      :     1.299842  p :     4.599885
      px      :     1.746604
      py      :     1.553439
      dz2     :     0.010952  d :     0.040721
      dxz     :     0.004624
      dyz     :     0.012559
      dx2y2   :     0.005019
      dxy     :     0.007567
      f0      :     0.000425  f :     0.002067
      f+1     :     0.000326
      f-1     :     0.000362
      f+2     :     0.000209
      f-2     :     0.000300
      f+3     :     0.000283
      f-3     :     0.000162
  5 C s       :     3.000160  s :     3.000160
      pz      :     0.827031  p :     2.240741
      px      :     0.846401
      py      :     0.567310
      dz2     :     0.057747  d :     0.272946
      dxz     :     0.041110
      dyz     :     0.054549
      dx2y2   :     0.065094
      dxy     :     0.054446
      f0      :     0.002324  f :     0.022228
      f+1     :     0.002212
      f-1     :     0.003935
      f+2     :     0.003784
      f-2     :     0.002965
      f+3     :     0.003011
      f-3     :     0.003997
  6 C s       :     3.243926  s :     3.243926
      pz      :     1.047067  p :     3.023381
      px      :     0.930500
      py      :     1.045814
      dz2     :     0.015228  d :     0.066978
      dxz     :     0.012141
      dyz     :     0.010625
      dx2y2   :     0.014988
      dxy     :     0.013997
      f0      :     0.001168  f :     0.004528
      f+1     :     0.000643
      f-1     :     0.000052
      f+2     :     0.000678
      f-2     :     0.000098
      f+3     :     0.001306
      f-3     :     0.000582
  7 C s       :     3.234181  s :     3.234181
      pz      :     0.926748  p :     3.016366
      px      :     1.050014
      py      :     1.039604
      dz2     :     0.016414  d :     0.066195
      dxz     :     0.011087
      dyz     :     0.016933
      dx2y2   :     0.014520
      dxy     :     0.007241
      f0      :     0.001441  f :     0.004595
      f+1     :     0.000984
      f-1     :     0.000534
      f+2     :     0.000454
      f-2     :     0.000159
      f+3     :     0.000973
      f-3     :     0.000051
  8 O s       :     3.788081  s :     3.788081
      pz      :     1.423925  p :     4.624275
      px      :     1.700437
      py      :     1.499913
      dz2     :     0.007703  d :     0.038326
      dxz     :     0.005545
      dyz     :     0.010971
      dx2y2   :     0.007580
      dxy     :     0.006527
      f0      :     0.000268  f :     0.002015
      f+1     :     0.000481
      f-1     :     0.000232
      f+2     :     0.000324
      f-2     :     0.000318
      f+3     :     0.000220
      f-3     :     0.000172
  9 H s       :     0.871861  s :     0.871861
      pz      :     0.003826  p :     0.021627
      px      :     0.013739
      py      :     0.004062
 10 H s       :     0.888335  s :     0.888335
      pz      :     0.008855  p :     0.021493
      px      :     0.004705
      py      :     0.007933
 11 H s       :     0.855938  s :     0.855938
      pz      :     0.011360  p :     0.021905
      px      :     0.006193
      py      :     0.004351
 12 H s       :     0.899552  s :     0.899552
      pz      :     0.011226  p :     0.021786
      px      :     0.006227
      py      :     0.004332
 13 H s       :     0.881032  s :     0.881032
      pz      :     0.008877  p :     0.022021
      px      :     0.005436
      py      :     0.007708
 14 H s       :     0.906652  s :     0.906652
      pz      :     0.009664  p :     0.021627
      px      :     0.004983
      py      :     0.006980
 15 H s       :     0.896269  s :     0.896269
      pz      :     0.006927  p :     0.021248
      px      :     0.010609
      py      :     0.003712
 16 H s       :     0.874572  s :     0.874572
      pz      :     0.004087  p :     0.021655
      px      :     0.010503
      py      :     0.007064
 17 H s       :     0.871835  s :     0.871835
      pz      :     0.005695  p :     0.021850
      px      :     0.005257
      py      :     0.010897
 18 H s       :     0.867651  s :     0.867651
      pz      :     0.005324  p :     0.021907
      px      :     0.005988
      py      :     0.010595
 19 H s       :     0.879161  s :     0.879161
      pz      :     0.013629  p :     0.022085
      px      :     0.004726
      py      :     0.003730
 20 H s       :     0.870558  s :     0.870558
      pz      :     0.003562  p :     0.022063
      px      :     0.014826
      py      :     0.003674
 21 H s       :     0.874046  s :     0.874046
      pz      :     0.006437  p :     0.021795
      px      :     0.005059
      py      :     0.010299
 22 H s       :     0.869944  s :     0.869944
      pz      :     0.006141  p :     0.021774
      px      :     0.004401
      py      :     0.011232


                     *******************************
                     * LOEWDIN POPULATION ANALYSIS *
                     *******************************

----------------------
LOEWDIN ATOMIC CHARGES
----------------------
   0 C :   -0.286465
   1 C :   -0.254396
   2 C :   -0.276576
   3 C :   -0.248970
   4 O :    0.146221
   5 C :   -0.423728
   6 C :   -0.235608
   7 C :   -0.231970
   8 O :    0.153186
   9 H :    0.108840
  10 H :    0.109208
  11 H :    0.116053
  12 H :    0.126220
  13 H :    0.130260
  14 H :    0.130672
  15 H :    0.110530
  16 H :    0.121923
  17 H :    0.117183
  18 H :    0.118714
  19 H :    0.114333
  20 H :    0.117095
  21 H :    0.118660
  22 H :    0.118614

-------------------------------
LOEWDIN REDUCED ORBITAL CHARGES
-------------------------------
  0 C s       :     2.827826  s :     2.827826
      pz      :     1.063937  p :     3.154872
      px      :     1.052761
      py      :     1.038174
      dz2     :     0.042017  d :     0.278793
      dxz     :     0.027864
      dyz     :     0.082384
      dx2y2   :     0.073645
      dxy     :     0.052883
      f0      :     0.001926  f :     0.024974
      f+1     :     0.003105
      f-1     :     0.004214
      f+2     :     0.002990
      f-2     :     0.003345
      f+3     :     0.005815
      f-3     :     0.003579
  1 C s       :     2.779668  s :     2.779668
      pz      :     1.011153  p :     3.032994
      px      :     0.998155
      py      :     1.023686
      dz2     :     0.052516  d :     0.403955
      dxz     :     0.073329
      dyz     :     0.084721
      dx2y2   :     0.095925
      dxy     :     0.097463
      f0      :     0.003527  f :     0.037779
      f+1     :     0.004329
      f-1     :     0.004448
      f+2     :     0.005260
      f-2     :     0.004091
      f+3     :     0.008503
      f-3     :     0.007620
  2 C s       :     2.749223  s :     2.749223
      pz      :     0.839949  p :     2.800999
      px      :     0.968448
      py      :     0.992602
      dz2     :     0.135483  d :     0.639009
      dxz     :     0.139737
      dyz     :     0.117867
      dx2y2   :     0.137952
      dxy     :     0.107970
      f0      :     0.016622  f :     0.087345
      f+1     :     0.014100
      f-1     :     0.011453
      f+2     :     0.012654
      f-2     :     0.012726
      f+3     :     0.010081
      f-3     :     0.009710
  3 C s       :     2.793966  s :     2.793966
      pz      :     0.826580  p :     2.857081
      px      :     1.027964
      py      :     1.002537
      dz2     :     0.116536  d :     0.523279
      dxz     :     0.142939
      dyz     :     0.113826
      dx2y2   :     0.073902
      dxy     :     0.076076
      f0      :     0.020499  f :     0.074645
      f+1     :     0.011706
      f-1     :     0.016655
      f+2     :     0.008406
      f-2     :     0.007232
      f+3     :     0.004457
      f-3     :     0.005690
  4 O s       :     3.277388  s :     3.277388
      pz      :     1.317473  p :     4.470450
      px      :     1.624550
      py      :     1.528427
      dz2     :     0.028442  d :     0.099311
      dxz     :     0.016952
      dyz     :     0.029417
      dx2y2   :     0.009879
      dxy     :     0.014621
      f0      :     0.001198  f :     0.006630
      f+1     :     0.000920
      f-1     :     0.001746
      f+2     :     0.000857
      f-2     :     0.000759
      f+3     :     0.000617
      f-3     :     0.000531
  5 C s       :     2.719289  s :     2.719289
      pz      :     0.946351  p :     2.673575
      px      :     0.975682
      py      :     0.751542
      dz2     :     0.191262  d :     0.889557
      dxz     :     0.131952
      dyz     :     0.174601
      dx2y2   :     0.214373
      dxy     :     0.177368
      f0      :     0.013614  f :     0.141308
      f+1     :     0.012534
      f-1     :     0.025007
      f+2     :     0.024379
      f-2     :     0.022028
      f+3     :     0.019153
      f-3     :     0.024592
  6 C s       :     2.830047  s :     2.830047
      pz      :     1.051261  p :     3.123946
      px      :     1.015577
      py      :     1.057108
      dz2     :     0.053350  d :     0.258085
      dxz     :     0.057386
      dyz     :     0.030835
      dx2y2   :     0.056618
      dxy     :     0.059897
      f0      :     0.004414  f :     0.023530
      f+1     :     0.003345
      f-1     :     0.000237
      f+2     :     0.004430
      f-2     :     0.002613
      f+3     :     0.005031
      f-3     :     0.003460
  7 C s       :     2.828549  s :     2.828549
      pz      :     1.014889  p :     3.121129
      px      :     1.051293
      py      :     1.054947
      dz2     :     0.063102  d :     0.258285
      dxz     :     0.048979
      dyz     :     0.070542
      dx2y2   :     0.055913
      dxy     :     0.019749
      f0      :     0.006281  f :     0.024007
      f+1     :     0.006078
      f-1     :     0.002894
      f+2     :     0.002171
      f-2     :     0.003138
      f+3     :     0.002991
      f-3     :     0.000453
  8 O s       :     3.278880  s :     3.278880
      pz      :     1.394545  p :     4.469043
      px      :     1.578827
      py      :     1.495670
      dz2     :     0.021056  d :     0.092706
      dxz     :     0.015872
      dyz     :     0.026375
      dx2y2   :     0.013923
      dxy     :     0.015479
      f0      :     0.000978  f :     0.006186
      f+1     :     0.000771
      f-1     :     0.001233
      f+2     :     0.001091
      f-2     :     0.000781
      f+3     :     0.000662
      f-3     :     0.000670
  9 H s       :     0.831540  s :     0.831540
      pz      :     0.012875  p :     0.059620
      px      :     0.034383
      py      :     0.012362
 10 H s       :     0.831559  s :     0.831559
      pz      :     0.024455  p :     0.059233
      px      :     0.014879
      py      :     0.019899
 11 H s       :     0.822898  s :     0.822898
      pz      :     0.029829  p :     0.061048
      px      :     0.018196
      py      :     0.013024
 12 H s       :     0.817094  s :     0.817094
      pz      :     0.027629  p :     0.056685
      px      :     0.016148
      py      :     0.012908
 13 H s       :     0.812187  s :     0.812187
      pz      :     0.023423  p :     0.057553
      px      :     0.014802
      py      :     0.019328
 14 H s       :     0.814816  s :     0.814816
      pz      :     0.022652  p :     0.054513
      px      :     0.014013
      py      :     0.017847
 15 H s       :     0.832764  s :     0.832764
      pz      :     0.017349  p :     0.056707
      px      :     0.027792
      py      :     0.011566
 16 H s       :     0.821008  s :     0.821008
      pz      :     0.011089  p :     0.057069
      px      :     0.028019
      py      :     0.017961
 17 H s       :     0.822819  s :     0.822819
      pz      :     0.017054  p :     0.059998
      px      :     0.014482
      py      :     0.028462
 18 H s       :     0.821086  s :     0.821086
      pz      :     0.016249  p :     0.060200
      px      :     0.015984
      py      :     0.027967
 19 H s       :     0.825520  s :     0.825520
      pz      :     0.034409  p :     0.060147
      px      :     0.013492
      py      :     0.012247
 20 H s       :     0.822782  s :     0.822782
      pz      :     0.011413  p :     0.060123
      px      :     0.036592
      py      :     0.012118
 21 H s       :     0.821392  s :     0.821392
      pz      :     0.016944  p :     0.059948
      px      :     0.015869
      py      :     0.027135
 22 H s       :     0.821416  s :     0.821416
      pz      :     0.016423  p :     0.059970
      px      :     0.014298
      py      :     0.029249


                      *****************************
                      * MAYER POPULATION ANALYSIS *
                      *****************************

  NA   - Mulliken gross atomic population
  ZA   - Total nuclear charge
  QA   - Mulliken gross atomic charge
  VA   - Mayer's total valence
  BVA  - Mayer's bonded valence
  FA   - Mayer's free valence

  ATOM       NA         ZA         QA         VA         BVA        FA
  0 C      6.3285     6.0000    -0.3285     3.9227     3.9227     0.0000
  1 C      6.2020     6.0000    -0.2020     3.9360     3.9360     0.0000
  2 C      5.7869     6.0000     0.2131     3.8250     3.8250    -0.0000
  3 C      5.9894     6.0000     0.0106     3.9664     3.9664    -0.0000
  4 O      8.4320     8.0000    -0.4320     1.8511     1.8511    -0.0000
  5 C      5.5361     6.0000     0.4639     3.8899     3.8899    -0.0000
  6 C      6.3388     6.0000    -0.3388     3.9522     3.9522    -0.0000
  7 C      6.3213     6.0000    -0.3213     3.8954     3.8954     0.0000
  8 O      8.4527     8.0000    -0.4527     1.8511     1.8511    -0.0000
  9 H      0.8935     1.0000     0.1065     0.9680     0.9680     0.0000
 10 H      0.9098     1.0000     0.0902     0.9749     0.9749     0.0000
 11 H      0.8778     1.0000     0.1222     0.9817     0.9817     0.0000
 12 H      0.9213     1.0000     0.0787     0.9743     0.9743     0.0000
 13 H      0.9031     1.0000     0.0969     0.9739     0.9739     0.0000
 14 H      0.9283     1.0000     0.0717     0.9658     0.9658     0.0000
 15 H      0.9175     1.0000     0.0825     0.9625     0.9625    -0.0000
 16 H      0.8962     1.0000     0.1038     0.9659     0.9659     0.0000
 17 H      0.8937     1.0000     0.1063     0.9764     0.9764    -0.0000
 18 H      0.8896     1.0000     0.1104     0.9783     0.9783     0.0000
 19 H      0.9012     1.0000     0.0988     0.9757     0.9757    -0.0000
 20 H      0.8926     1.0000     0.1074     0.9847     0.9847     0.0000
 21 H      0.8958     1.0000     0.1042     0.9775     0.9775     0.0000
 22 H      0.8917     1.0000     0.1083     0.9768     0.9768    -0.0000

  Mayer bond orders larger than 0.1
B(  0-C ,  1-C ) :   0.9746 B(  0-C ,  9-H ) :   0.9905 B(  0-C , 10-H ) :   0.9856 
B(  0-C , 11-H ) :   0.9872 B(  1-C ,  2-C ) :   0.9756 B(  1-C , 12-H ) :   0.9842 
B(  1-C , 13-H ) :   0.9882 B(  2-C ,  3-C ) :   0.9652 B(  2-C ,  8-O ) :   0.9080 
B(  2-C , 14-H ) :   0.9726 B(  3-C ,  4-O ) :   0.9445 B(  3-C , 15-H ) :   0.9948 
B(  3-C , 16-H ) :   0.9736 B(  4-O ,  5-C ) :   0.9191 B(  5-C ,  6-C ) :   0.9884 
B(  5-C ,  7-C ) :   0.9595 B(  5-C ,  8-O ) :   0.9299 B(  6-C , 17-H ) :   0.9877 
B(  6-C , 18-H ) :   0.9906 B(  6-C , 19-H ) :   0.9757 B(  7-C , 20-H ) :   0.9888 
B(  7-C , 21-H ) :   0.9855 B(  7-C , 22-H ) :   0.9883 

-------
TIMINGS
-------

Total SCF time: 0 days 0 hours 4 min 24 sec 

Total time                  ....     264.290 sec
Sum of individual times     ....     272.056 sec  (102.9%)

Fock matrix formation       ....     261.463 sec  ( 98.9%)
Diagonalization             ....       1.378 sec  (  0.5%)
Density matrix formation    ....       0.088 sec  (  0.0%)
Population analysis         ....       0.283 sec  (  0.1%)
Initial guess               ....       5.535 sec  (  2.1%)
Orbital Transformation      ....       0.000 sec  (  0.0%)
Orbital Orthonormalization  ....       0.000 sec  (  0.0%)
DIIS solution               ....       0.463 sec  (  0.2%)
SOSCF solution              ....       0.360 sec  (  0.1%)

   <<< Auxbasis replaced with dsgdb9nsd_115281.AUXC.tmp (Dim=894) >>> 


------------------------------------------------------------------------------
                              ORCA MP2 CALCULATION
------------------------------------------------------------------------------

Freezing NCore=18 chemical core electrons

   <<< Use J-auxbasis for calculation of Separable RI-J derivative contributions dsgdb9nsd_115281.AUXJ.tmp (Dim=931) >>> 


---------------------
RI-MP2 ENERGY+DENSITY
---------------------
Dimension of the basis                    ...  363
Memory devoted to MP2                     ... 2000 MB   
Data format for buffers                   ... DOUBLE
Compression type for matrix containers    ... UNCOMPRESSED
Overall scaling of the MP2 energy         ...   1.000e+00 Eh
Calculating two index integrals           ... done (    0.028 sec)
Cholesky decomposition of V**-1           ... done (    0.243 sec)

-----------------
RI-TRANSFORMATION (AUX index driven)
-----------------

Dimension of the orbital-basis         ... 363
Dimension of the aux-basis             ... 894
Transformation of internal MOs         ...    0-  35
Transformation of internal/external MOs...    0-  35 to   36- 362
Number Format for Storage              ... Double (8 Byte)
Integral mode                          ... Direct

First Phase: integral generation and transformation of MO indices
  Aux angular momentum 0               ... done (    1.795 sec)
  Aux angular momentum 1               ... done (    2.447 sec)
  Aux angular momentum 2               ... done (    2.468 sec)
  Aux angular momentum 3               ... done (    1.701 sec)
  Aux angular momentum 4               ... done (    0.764 sec)
Closing buffer VIJ ( 0.00 GB; CompressionRatio= 1.94)
Closing buffer VIA ( 0.08 GB; CompressionRatio= 1.00)
  Phase 1 completed in     9.293 sec
Second Phase: sorting and transformation of aux index

IJ-Transformation
Memory available                       ... 1984 MB 
Max. # MO pairs treated in a batch     ... 36    
# of internal orbitals                 ... 36
# batches for internal orbitals        ... 1
Closing buffer IJV ( 0.00 GB; CompressionRatio= 1.00)
(ij|v) transformation done in     0.440 sec

IA-Transformation
Memory available                       ... 1984 MB 
Max. # MO pairs treated in a batch     ... 36    
# of internal orbitals                 ... 36
# batches for internal orbitals        ... 1
Closing buffer IAV ( 0.08 GB; CompressionRatio= 1.00)
(ia|v) transformation done in     3.752 sec

  Phase 2 completed in     4.320 sec
RI-Integral transformation completed in    13.614 sec
Opening buffers                              ... done
Frozen core precalculation                   ... done

Starting loop over batches of integrals:

Operator 0  - window                       ... (  9- 35)x( 36-362)
Operator 0  - Memory available             ...  2000 MB
Operator 0  - Memory needed per MO         ...   4.5 MB
Operator 0  - Number of orbitals per batch ... 27
Operator 0  - Number of batches            ... 1

OPERATOR  0   PASS   0:  MOs     9 ...   35
  Reading integrals       ... ok
  Internal MO  11
  Internal MO  14
  Internal MO  17
  Internal MO  20
  Internal MO  23
  Internal MO  26
  Internal MO  29
  Internal MO  32
  Internal MO  35
Time spent in pair loops =    98.759 sec
Deleting buffer (Ka|jb)[aa] ...done

-----------------------------------------------
 RI-MP2 CORRELATION ENERGY:     -1.634518208 Eh
-----------------------------------------------


---------------------
MP2 DENSITY FORMATION
---------------------

Completing the external part of the density      ... done
Storing the unrelaxed density                    ... done

Calculating G(D)                                 ... done
Completing the Lagrangian                        ... done
Solving the Z-vector equations                   ... 

------------------------------------------------------------------------------
                           ORCA CP-SCF CALCULATION
------------------------------------------------------------------------------

Input orbitals are from        ... dsgdb9nsd_115281.gbw
Input Perturbation             ... dsgdb9nsd_115281.pin.tmp
Wavefunction output            ... dsgdb9nsd_115281.pout.tmp
Perturbation mode              ... Real perturbation
Solver                         ... POPLE
Max. number of iterations      ... 128
Convergence tolerance          ... 1.000e-08
Integral handling              ... Direct
Number of perturbations        ... 1
Number of operators            ... 1
Orbital ranges used for CP-SCF:
 Operator 0:  Orbitals   0... 35  to  36...362
Variables per vector in CP-SCF ... 11772
Number of vectors sought       ... 1
     CP-SCF ITERATION   0: 
     CP-SCF ITERATION   1:      0.000657419
     CP-SCF ITERATION   2:      0.000094876
     CP-SCF ITERATION   3:      0.000004819
     CP-SCF ITERATION   4:      0.000000399
     CP-SCF ITERATION   5:      0.000000039
     CP-SCF ITERATION   6:      0.000000003
done
Finalizing the relaxed density                   ... done
Transforming P to the AO basis                   ... done
Storing the relaxed density                      ... done

                *********************************************
                * UNRELAXED MP2 DENSITY POPULATION ANALYSIS *
                *********************************************

------------------------------------------------------------------------------
                           ORCA POPULATION ANALYSIS
------------------------------------------------------------------------------
Input electron density              ... dsgdb9nsd_115281.pmp2ur
BaseName (.gbw .S,...)              ... dsgdb9nsd_115281

                    ********************************
                    * MULLIKEN POPULATION ANALYSIS *
                    ********************************

-----------------------
MULLIKEN ATOMIC CHARGES
-----------------------
   0 C :   -0.336836
   1 C :   -0.210233
   2 C :    0.197786
   3 C :   -0.004811
   4 O :   -0.412042
   5 C :    0.439466
   6 C :   -0.347082
   7 C :   -0.329037
   8 O :   -0.432086
   9 H :    0.109872
  10 H :    0.093438
  11 H :    0.124876
  12 H :    0.082518
  13 H :    0.100538
  14 H :    0.075993
  15 H :    0.085831
  16 H :    0.107229
  17 H :    0.109458
  18 H :    0.113667
  19 H :    0.102065
  20 H :    0.110529
  21 H :    0.107365
  22 H :    0.111498
Sum of atomic charges:    0.0000000

--------------------------------
MULLIKEN REDUCED ORBITAL CHARGES
--------------------------------
  0 C s       :     3.214437  s :     3.214437
      pz      :     1.048902  p :     3.014492
      px      :     1.037098
      py      :     0.928491
      dz2     :     0.017024  d :     0.099651
      dxz     :     0.014693
      dyz     :     0.026538
      dx2y2   :     0.023810
      dxy     :     0.017586
      f0      :     0.000844  f :     0.008257
      f+1     :     0.001284
      f-1     :     0.001351
      f+2     :     0.001293
      f-2     :     0.000752
      f+3     :     0.001500
      f-3     :     0.001233
  1 C s       :     3.174777  s :     3.174777
      pz      :     0.995822  p :     2.890225
      px      :     0.923126
      py      :     0.971277
      dz2     :     0.020189  d :     0.134714
      dxz     :     0.023542
      dyz     :     0.030030
      dx2y2   :     0.030324
      dxy     :     0.030630
      f0      :     0.001167  f :     0.010517
      f+1     :     0.001471
      f-1     :     0.001434
      f+2     :     0.001637
      f-2     :     0.000874
      f+3     :     0.002016
      f-3     :     0.001917
  2 C s       :     3.041754  s :     3.041754
      pz      :     0.767341  p :     2.549510
      px      :     0.865221
      py      :     0.916948
      dz2     :     0.042220  d :     0.193392
      dxz     :     0.044593
      dyz     :     0.033394
      dx2y2   :     0.044089
      dxy     :     0.029096
      f0      :     0.003313  f :     0.017558
      f+1     :     0.002668
      f-1     :     0.002311
      f+2     :     0.002864
      f-2     :     0.001994
      f+3     :     0.002217
      f-3     :     0.002191
  3 C s       :     3.165641  s :     3.165641
      pz      :     0.735096  p :     2.667515
      px      :     1.015339
      py      :     0.917081
      dz2     :     0.031538  d :     0.156611
      dxz     :     0.047490
      dyz     :     0.031994
      dx2y2   :     0.022242
      dxy     :     0.023347
      f0      :     0.003520  f :     0.015043
      f+1     :     0.002629
      f-1     :     0.002397
      f+2     :     0.001942
      f-2     :     0.001553
      f+3     :     0.001338
      f-3     :     0.001663
  4 O s       :     3.783175  s :     3.783175
      pz      :     1.286783  p :     4.554063
      px      :     1.729728
      py      :     1.537552
      dz2     :     0.016697  d :     0.069914
      dxz     :     0.010725
      dyz     :     0.018174
      dx2y2   :     0.010928
      dxy     :     0.013389
      f0      :     0.000828  f :     0.004890
      f+1     :     0.000721
      f-1     :     0.000780
      f+2     :     0.000612
      f-2     :     0.000703
      f+3     :     0.000679
      f-3     :     0.000566
  5 C s       :     3.001627  s :     3.001627
      pz      :     0.825573  p :     2.243188
      px      :     0.844110
      py      :     0.573506
      dz2     :     0.061211  d :     0.289769
      dxz     :     0.045731
      dyz     :     0.057567
      dx2y2   :     0.067302
      dxy     :     0.057959
      f0      :     0.002860  f :     0.025950
      f+1     :     0.002802
      f-1     :     0.004548
      f+2     :     0.004312
      f-2     :     0.003405
      f+3     :     0.003429
      f-3     :     0.004594
  6 C s       :     3.240866  s :     3.240866
      pz      :     1.040953  p :     3.005137
      px      :     0.924128
      py      :     1.040056
      dz2     :     0.020084  d :     0.092869
      dxz     :     0.017842
      dyz     :     0.016287
      dx2y2   :     0.019039
      dxy     :     0.019618
      f0      :     0.001657  f :     0.008211
      f+1     :     0.001144
      f-1     :     0.000632
      f+2     :     0.001222
      f-2     :     0.000625
      f+3     :     0.001750
      f-3     :     0.001182
  7 C s       :     3.230823  s :     3.230823
      pz      :     0.920327  p :     2.998016
      px      :     1.043863
      py      :     1.033825
      dz2     :     0.020371  d :     0.091920
      dxz     :     0.016317
      dyz     :     0.022291
      dx2y2   :     0.019806
      dxy     :     0.013134
      f0      :     0.001916  f :     0.008279
      f+1     :     0.001476
      f-1     :     0.001138
      f+2     :     0.000994
      f-2     :     0.000693
      f+3     :     0.001440
      f-3     :     0.000621
  8 O s       :     3.781855  s :     3.781855
      pz      :     1.409228  p :     4.577382
      px      :     1.683906
      py      :     1.484249
      dz2     :     0.013724  d :     0.068017
      dxz     :     0.011666
      dyz     :     0.016716
      dx2y2   :     0.013441
      dxy     :     0.012469
      f0      :     0.000671  f :     0.004832
      f+1     :     0.000865
      f-1     :     0.000648
      f+2     :     0.000728
      f-2     :     0.000720
      f+3     :     0.000623
      f-3     :     0.000577
  9 H s       :     0.865368  s :     0.865368
      pz      :     0.004942  p :     0.024761
      px      :     0.014632
      py      :     0.005186
 10 H s       :     0.881898  s :     0.881898
      pz      :     0.009873  p :     0.024664
      px      :     0.005818
      py      :     0.008973
 11 H s       :     0.850124  s :     0.850124
      pz      :     0.012293  p :     0.025000
      px      :     0.007247
      py      :     0.005460
 12 H s       :     0.892492  s :     0.892492
      pz      :     0.012220  p :     0.024990
      px      :     0.007316
      py      :     0.005454
 13 H s       :     0.874255  s :     0.874255
      pz      :     0.009892  p :     0.025207
      px      :     0.006547
      py      :     0.008768
 14 H s       :     0.899177  s :     0.899177
      pz      :     0.010712  p :     0.024830
      px      :     0.006077
      py      :     0.008041
 15 H s       :     0.889701  s :     0.889701
      pz      :     0.008026  p :     0.024469
      px      :     0.011578
      py      :     0.004864
 16 H s       :     0.868019  s :     0.868019
      pz      :     0.005202  p :     0.024752
      px      :     0.011450
      py      :     0.008100
 17 H s       :     0.865587  s :     0.865587
      pz      :     0.006767  p :     0.024955
      px      :     0.006349
      py      :     0.011839
 18 H s       :     0.861338  s :     0.861338
      pz      :     0.006402  p :     0.024996
      px      :     0.007055
      py      :     0.011539
 19 H s       :     0.872690  s :     0.872690
      pz      :     0.014533  p :     0.025245
      px      :     0.005856
      py      :     0.004856
 20 H s       :     0.864317  s :     0.864317
      pz      :     0.004690  p :     0.025154
      px      :     0.015678
      py      :     0.004786
 21 H s       :     0.867742  s :     0.867742
      pz      :     0.007494  p :     0.024893
      px      :     0.006150
      py      :     0.011249
 22 H s       :     0.863631  s :     0.863631
      pz      :     0.007208  p :     0.024871
      px      :     0.005503
      py      :     0.012160


                     *******************************
                     * LOEWDIN POPULATION ANALYSIS *
                     *******************************

----------------------
LOEWDIN ATOMIC CHARGES
----------------------
   0 C :   -0.292424
   1 C :   -0.258543
   2 C :   -0.283478
   3 C :   -0.258574
   4 O :    0.158857
   5 C :   -0.431409
   6 C :   -0.243572
   7 C :   -0.239599
   8 O :    0.166493
   9 H :    0.110723
  10 H :    0.111058
  11 H :    0.117830
  12 H :    0.127834
  13 H :    0.131902
  14 H :    0.132082
  15 H :    0.111872
  16 H :    0.123582
  17 H :    0.118953
  18 H :    0.120496
  19 H :    0.116154
  20 H :    0.118877
  21 H :    0.120473
  22 H :    0.120414

-------------------------------
LOEWDIN REDUCED ORBITAL CHARGES
-------------------------------
  0 C s       :     2.825965  s :     2.825965
      pz      :     1.056410  p :     3.130669
      px      :     1.045419
      py      :     1.028840
      dz2     :     0.047650  d :     0.305472
      dxz     :     0.033687
      dyz     :     0.087109
      dx2y2   :     0.079076
      dxy     :     0.057950
      f0      :     0.002614  f :     0.030318
      f+1     :     0.003853
      f-1     :     0.005025
      f+2     :     0.003770
      f-2     :     0.004034
      f+3     :     0.006616
      f-3     :     0.004406
  1 C s       :     2.778032  s :     2.778032
      pz      :     1.003924  p :     3.007420
      px      :     0.989220
      py      :     1.014277
      dz2     :     0.058166  d :     0.429312
      dxz     :     0.078447
      dyz     :     0.089582
      dx2y2   :     0.101371
      dxy     :     0.101746
      f0      :     0.004280  f :     0.043778
      f+1     :     0.005217
      f-1     :     0.005282
      f+2     :     0.006104
      f-2     :     0.004857
      f+3     :     0.009445
      f-3     :     0.008592
  2 C s       :     2.748327  s :     2.748327
      pz      :     0.837762  p :     2.783483
      px      :     0.961323
      py      :     0.984398
      dz2     :     0.139389  d :     0.658291
      dxz     :     0.142972
      dyz     :     0.121658
      dx2y2   :     0.142276
      dxy     :     0.111997
      f0      :     0.017222  f :     0.093377
      f+1     :     0.015163
      f-1     :     0.012320
      f+2     :     0.013471
      f-2     :     0.013403
      f+3     :     0.011078
      f-3     :     0.010720
  3 C s       :     2.793029  s :     2.793029
      pz      :     0.824977  p :     2.840906
      px      :     1.021385
      py      :     0.994544
      dz2     :     0.120463  d :     0.544486
      dxz     :     0.146463
      dyz     :     0.117546
      dx2y2   :     0.079099
      dxy     :     0.080914
      f0      :     0.021232  f :     0.080152
      f+1     :     0.012414
      f-1     :     0.017495
      f+2     :     0.009213
      f-2     :     0.007940
      f+3     :     0.005267
      f-3     :     0.006591
  4 O s       :     3.274523  s :     3.274523
      pz      :     1.304230  p :     4.426237
      px      :     1.608865
      py      :     1.513142
      dz2     :     0.034821  d :     0.130543
      dxz     :     0.023061
      dyz     :     0.035530
      dx2y2   :     0.016142
      dxy     :     0.020989
      f0      :     0.001698  f :     0.009841
      f+1     :     0.001360
      f-1     :     0.002238
      f+2     :     0.001293
      f-2     :     0.001232
      f+3     :     0.001065
      f-3     :     0.000955
  5 C s       :     2.719243  s :     2.719243
      pz      :     0.940568  p :     2.662980
      px      :     0.969333
      py      :     0.753080
      dz2     :     0.193775  d :     0.901863
      dxz     :     0.135371
      dyz     :     0.176718
      dx2y2   :     0.216263
      dxy     :     0.179737
      f0      :     0.014949  f :     0.147322
      f+1     :     0.013530
      f-1     :     0.025555
      f+2     :     0.025109
      f-2     :     0.022640
      f+3     :     0.020336
      f-3     :     0.025202
  6 C s       :     2.828432  s :     2.828432
      pz      :     1.043688  p :     3.099847
      px      :     1.006485
      py      :     1.049673
      dz2     :     0.059145  d :     0.286296
      dxz     :     0.062530
      dyz     :     0.036724
      dx2y2   :     0.062423
      dxy     :     0.065474
      f0      :     0.005245  f :     0.028997
      f+1     :     0.004175
      f-1     :     0.000881
      f+2     :     0.005151
      f-2     :     0.003305
      f+3     :     0.006008
      f-3     :     0.004232
  7 C s       :     2.826876  s :     2.826876
      pz      :     1.006015  p :     3.097138
      px      :     1.043630
      py      :     1.047493
      dz2     :     0.068821  d :     0.286123
      dxz     :     0.054234
      dyz     :     0.075934
      dx2y2   :     0.061476
      dxy     :     0.025657
      f0      :     0.007251  f :     0.029462
[...]
      f+2     :     0.004174
      f-2     :     0.003209
      f+3     :     0.003136
      f-3     :     0.004562
  6 C s       :     3.248399  s :     3.248399
      pz      :     1.063002  p :     3.054470
      px      :     0.929593
      py      :     1.061874
      dz2     :     0.016057  d :     0.080519
      dxz     :     0.017297
      dyz     :     0.013663
      dx2y2   :     0.014734
      dxy     :     0.018769
      f0      :     0.001572  f :     0.007802
      f+1     :     0.001047
      f-1     :     0.000633
      f+2     :     0.001196
      f-2     :     0.000610
      f+3     :     0.001545
      f-3     :     0.001200
  7 C s       :     3.242521  s :     3.242521
      pz      :     0.927486  p :     3.050321
      px      :     1.065551
      py      :     1.057283
      dz2     :     0.016441  d :     0.079377
      dxz     :     0.015089
      dyz     :     0.020281
      dx2y2   :     0.016194
      dxy     :     0.011372
      f0      :     0.001740  f :     0.007860
      f+1     :     0.001360
      f-1     :     0.001154
      f+2     :     0.000962
      f-2     :     0.000674
      f+3     :     0.001351
      f-3     :     0.000618
  8 O s       :     3.774940  s :     3.774940
      pz      :     1.374970  p :     4.487668
      px      :     1.648378
      py      :     1.464321
      dz2     :     0.013731  d :     0.066743
      dxz     :     0.011308
      dyz     :     0.016165
      dx2y2   :     0.013257
      dxy     :     0.012282
      f0      :     0.000672  f :     0.004812
      f+1     :     0.000848
      f-1     :     0.000658
      f+2     :     0.000723
      f-2     :     0.000715
      f+3     :     0.000615
      f-3     :     0.000582
  9 H s       :     0.845153  s :     0.845153
      pz      :     0.005203  p :     0.023841
      px      :     0.013251
      py      :     0.005387
 10 H s       :     0.859409  s :     0.859409
      pz      :     0.009265  p :     0.023695
      px      :     0.005890
      py      :     0.008540
 11 H s       :     0.832996  s :     0.832996
      pz      :     0.011302  p :     0.023999
      px      :     0.007114
      py      :     0.005582
 12 H s       :     0.871135  s :     0.871135
      pz      :     0.011217  p :     0.023980
      px      :     0.007177
      py      :     0.005586
 13 H s       :     0.853773  s :     0.853773
      pz      :     0.009257  p :     0.024148
      px      :     0.006523
      py      :     0.008368
 14 H s       :     0.883914  s :     0.883914
      pz      :     0.009948  p :     0.023684
      px      :     0.006024
      py      :     0.007712
 15 H s       :     0.876152  s :     0.876152
      pz      :     0.007675  p :     0.023439
      px      :     0.010683
      py      :     0.005081
 16 H s       :     0.851933  s :     0.851933
      pz      :     0.005199  p :     0.023612
      px      :     0.010603
      py      :     0.007810
 17 H s       :     0.846515  s :     0.846515
      pz      :     0.006676  p :     0.023976
      px      :     0.006380
      py      :     0.010920
 18 H s       :     0.842601  s :     0.842601
      pz      :     0.006379  p :     0.024001
      px      :     0.006975
      py      :     0.010646
 19 H s       :     0.852806  s :     0.852806
      pz      :     0.013188  p :     0.024304
      px      :     0.006002
      py      :     0.005114
 20 H s       :     0.844248  s :     0.844248
      pz      :     0.004916  p :     0.024142
      px      :     0.014193
      py      :     0.005033
 21 H s       :     0.846480  s :     0.846480
      pz      :     0.007330  p :     0.023920
      px      :     0.006156
      py      :     0.010434
 22 H s       :     0.843653  s :     0.843653
      pz      :     0.007098  p :     0.023903
      px      :     0.005618
      py      :     0.011187


                     *******************************
                     * LOEWDIN POPULATION ANALYSIS *
                     *******************************

----------------------
LOEWDIN ATOMIC CHARGES
----------------------
   0 C :   -0.318842
   1 C :   -0.279777
   2 C :   -0.312507
   3 C :   -0.289839
   4 O :    0.196087
   5 C :   -0.468319
   6 C :   -0.271764
   7 C :   -0.266826
   8 O :    0.206841
   9 H :    0.120125
  10 H :    0.120317
  11 H :    0.125532
  12 H :    0.137585
  13 H :    0.140627
  14 H :    0.140389
  15 H :    0.118615
  16 H :    0.132110
  17 H :    0.127763
  18 H :    0.129259
  19 H :    0.125303
  20 H :    0.127533
  21 H :    0.130046
  22 H :    0.129741

-------------------------------
LOEWDIN REDUCED ORBITAL CHARGES
-------------------------------
  0 C s       :     2.830833  s :     2.830833
      pz      :     1.070939  p :     3.165844
      px      :     1.059940
      py      :     1.034964
      dz2     :     0.044384  d :     0.292167
      dxz     :     0.031125
      dyz     :     0.084650
      dx2y2   :     0.073789
      dxy     :     0.058218
      f0      :     0.002609  f :     0.029998
      f+1     :     0.003757
      f-1     :     0.004964
      f+2     :     0.003740
      f-2     :     0.004005
      f+3     :     0.006586
      f-3     :     0.004336
  1 C s       :     2.784493  s :     2.784493
      pz      :     1.017718  p :     3.032858
      px      :     0.995368
      py      :     1.019773
      dz2     :     0.054738  d :     0.418944
      dxz     :     0.076330
      dyz     :     0.087640
      dx2y2   :     0.097536
      dxy     :     0.102700
      f0      :     0.004274  f :     0.043482
      f+1     :     0.005044
      f-1     :     0.005200
      f+2     :     0.006080
      f-2     :     0.004815
      f+3     :     0.009508
      f-3     :     0.008563
  2 C s       :     2.756788  s :     2.756788
      pz      :     0.848492  p :     2.807177
      px      :     0.966799
      py      :     0.991886
      dz2     :     0.139910  d :     0.656693
      dxz     :     0.142070
      dyz     :     0.120120
      dx2y2   :     0.140990
      dxy     :     0.113604
      f0      :     0.016731  f :     0.091848
      f+1     :     0.015023
      f-1     :     0.012049
      f+2     :     0.013167
      f-2     :     0.013173
      f+3     :     0.011005
      f-3     :     0.010700
  3 C s       :     2.801502  s :     2.801502
      pz      :     0.833658  p :     2.870494
      px      :     1.035339
      py      :     1.001496
      dz2     :     0.118421  d :     0.539317
      dxz     :     0.145522
      dyz     :     0.117757
      dx2y2   :     0.076992
      dxy     :     0.080625
      f0      :     0.020847  f :     0.078526
      f+1     :     0.011866
      f-1     :     0.017365
      f+2     :     0.009065
      f-2     :     0.007681
      f+3     :     0.005235
      f-3     :     0.006467
  4 O s       :     3.280588  s :     3.280588
      pz      :     1.297166  p :     4.380598
      px      :     1.588109
      py      :     1.495324
      dz2     :     0.034974  d :     0.132647
      dxz     :     0.023932
      dyz     :     0.035988
      dx2y2   :     0.016675
      dxy     :     0.021078
      f0      :     0.001748  f :     0.010079
      f+1     :     0.001392
      f-1     :     0.002284
      f+2     :     0.001320
      f-2     :     0.001273
      f+3     :     0.001097
      f-3     :     0.000966
  5 C s       :     2.728977  s :     2.728977
      pz      :     0.945436  p :     2.687324
      px      :     0.975048
      py      :     0.766841
      dz2     :     0.194378  d :     0.906884
      dxz     :     0.137478
      dyz     :     0.175854
      dx2y2   :     0.217322
      dxy     :     0.181851
      f0      :     0.014880  f :     0.145134
      f+1     :     0.013171
      f-1     :     0.025000
      f+2     :     0.024893
      f-2     :     0.022663
      f+3     :     0.019966
      f-3     :     0.024561
  6 C s       :     2.835101  s :     2.835101
      pz      :     1.057952  p :     3.134832
      px      :     1.012539
      py      :     1.064341
      dz2     :     0.054612  d :     0.273222
      dxz     :     0.062305
      dyz     :     0.033897
      dx2y2   :     0.057922
      dxy     :     0.064486
      f0      :     0.005123  f :     0.028608
      f+1     :     0.004090
      f-1     :     0.000884
      f+2     :     0.005125
      f-2     :     0.003229
      f+3     :     0.005840
      f-3     :     0.004317
  7 C s       :     2.833465  s :     2.833465
      pz      :     1.012761  p :     3.132358
      px      :     1.057111
      py      :     1.062486
      dz2     :     0.065111  d :     0.271942
      dxz     :     0.053552
      dyz     :     0.072851
      dx2y2   :     0.056411
      dxy     :     0.024016
      f0      :     0.007184  f :     0.029061
      f+1     :     0.006841
      f-1     :     0.003702
      f+2     :     0.002828
      f-2     :     0.003792
      f+3     :     0.003625
      f-3     :     0.001089
  8 O s       :     3.283069  s :     3.283069
      pz      :     1.366913  p :     4.373634
      px      :     1.542525
      py      :     1.464196
      dz2     :     0.027966  d :     0.126829
      dxz     :     0.023023
      dyz     :     0.033058
      dx2y2   :     0.020772
      dxy     :     0.022010
      f0      :     0.001465  f :     0.009627
      f+1     :     0.001288
      f-1     :     0.001725
      f+2     :     0.001588
      f-2     :     0.001292
      f+3     :     0.001137
      f-3     :     0.001131
  9 H s       :     0.813905  s :     0.813905
      pz      :     0.014778  p :     0.065970
      px      :     0.036856
      py      :     0.014336
 10 H s       :     0.814093  s :     0.814093
      pz      :     0.026681  p :     0.065590
      px      :     0.016829
      py      :     0.022080
 11 H s       :     0.807333  s :     0.807333
      pz      :     0.031994  p :     0.067135
      px      :     0.020177
      py      :     0.014965
 12 H s       :     0.798760  s :     0.798760
      pz      :     0.030212  p :     0.063655
      px      :     0.018463
      py      :     0.014980
 13 H s       :     0.795095  s :     0.795095
      pz      :     0.025740  p :     0.064278
      px      :     0.016944
      py      :     0.021594
 14 H s       :     0.797991  s :     0.797991
      pz      :     0.025465  p :     0.061620
      px      :     0.016048
      py      :     0.020107
 15 H s       :     0.817754  s :     0.817754
      pz      :     0.019982  p :     0.063630
      px      :     0.030081
      py      :     0.013567
 16 H s       :     0.804514  s :     0.804514
      pz      :     0.013250  p :     0.063375
      px      :     0.030090
      py      :     0.020035
 17 H s       :     0.805896  s :     0.805896
      pz      :     0.019027  p :     0.066341
      px      :     0.016651
      py      :     0.030663
 18 H s       :     0.804216  s :     0.804216
      pz      :     0.018209  p :     0.066525
      px      :     0.018231
      py      :     0.030086
 19 H s       :     0.808130  s :     0.808130
      pz      :     0.036859  p :     0.066568
      px      :     0.015588
      py      :     0.014120
 20 H s       :     0.806092  s :     0.806092
      pz      :     0.013306  p :     0.066375
      px      :     0.039073
      py      :     0.013997
 21 H s       :     0.803668  s :     0.803668
      pz      :     0.019160  p :     0.066286
      px      :     0.017834
      py      :     0.029292
 22 H s       :     0.803936  s :     0.803936
      pz      :     0.018650  p :     0.066324
      px      :     0.016224
      py      :     0.031450


                      *****************************
                      * MAYER POPULATION ANALYSIS *
                      *****************************

  NA   - Mulliken gross atomic population
  ZA   - Total nuclear charge
  QA   - Mulliken gross atomic charge
  VA   - Mayer's total valence
  BVA  - Mayer's bonded valence
  FA   - Mayer's free valence

  ATOM       NA         ZA         QA         VA         BVA        FA
  0 C      6.3926     6.0000    -0.3926     4.0089     3.7127     0.2961
  1 C      6.2507     6.0000    -0.2507     4.0114     3.6981     0.3133
  2 C      5.8915     6.0000     0.1085     3.9653     3.6499     0.3154
  3 C      6.0707     6.0000    -0.0707     4.0933     3.7903     0.3030
  4 O      8.3196     8.0000    -0.3196     2.2731     1.8559     0.4172
  5 C      5.6839     6.0000     0.3161     4.1038     3.7758     0.3279
  6 C      6.3912     6.0000    -0.3912     4.0172     3.7211     0.2961
  7 C      6.3801     6.0000    -0.3801     3.9631     3.6698     0.2933
  8 O      8.3342     8.0000    -0.3342     2.2671     1.8436     0.4235
  9 H      0.8690     1.0000     0.1310     0.9715     0.9229     0.0486
 10 H      0.8831     1.0000     0.1169     0.9784     0.9288     0.0497
 11 H      0.8570     1.0000     0.1430     0.9893     0.9409     0.0484
 12 H      0.8951     1.0000     0.1049     0.9766     0.9258     0.0509
 13 H      0.8779     1.0000     0.1221     0.9787     0.9284     0.0503
 14 H      0.9076     1.0000     0.0924     0.9677     0.9173     0.0504
 15 H      0.8996     1.0000     0.1004     0.9620     0.9119     0.0500
 16 H      0.8755     1.0000     0.1245     0.9665     0.9180     0.0485
 17 H      0.8705     1.0000     0.1295     0.9804     0.9313     0.0491
 18 H      0.8666     1.0000     0.1334     0.9822     0.9335     0.0487
 19 H      0.8771     1.0000     0.1229     0.9830     0.9333     0.0497
 20 H      0.8684     1.0000     0.1316     0.9922     0.9434     0.0488
 21 H      0.8704     1.0000     0.1296     0.9808     0.9317     0.0491
 22 H      0.8676     1.0000     0.1324     0.9800     0.9313     0.0488

  Mayer bond orders larger than 0.1
B(  0-C ,  1-C ) :   0.9247 B(  0-C ,  9-H ) :   0.9399 B(  0-C , 10-H ) :   0.9365 
B(  0-C , 11-H ) :   0.9366 B(  1-C ,  2-C ) :   0.9180 B(  1-C , 12-H ) :   0.9268 
B(  1-C , 13-H ) :   0.9322 B(  2-C ,  3-C ) :   0.9151 B(  2-C ,  8-O ) :   0.9014 
B(  2-C , 14-H ) :   0.9161 B(  3-C ,  4-O ) :   0.9420 B(  3-C , 15-H ) :   0.9328 
B(  3-C , 16-H ) :   0.9192 B(  4-O ,  5-C ) :   0.9203 B(  5-C ,  6-C ) :   0.9366 
B(  5-C ,  7-C ) :   0.9036 B(  5-C ,  8-O ) :   0.9209 B(  6-C , 17-H ) :   0.9345 
B(  6-C , 18-H ) :   0.9366 B(  6-C , 19-H ) :   0.9252 B(  7-C , 20-H ) :   0.9391 
B(  7-C , 21-H ) :   0.9328 B(  7-C , 22-H ) :   0.9350 


-------
TIMINGS
-------

Total time                : 1613.608 sec
Integral trafo            :   13.624 sec (  0.8%)
FC preparation            :    9.337 sec (  0.6%)
I/O of integrals          :    0.074 sec (  0.0%)
K(i,j) Operators          :   27.264 sec (  1.7%)
T(i,j) pair energies      :    1.338 sec (  0.1%)
V-calculation             :    0.028 sec (  0.0%)
V**(-1/2)                 :    0.243 sec (  0.0%)
Gamma(ia|P)               :   26.629 sec (  1.7%)
Gamma-Trafo               :    3.876 sec (  0.2%)
D(virtual)                :   10.166 sec (  0.6%)
D(internal)               :    5.262 sec (  0.3%)
W(virtual)                :    0.000 sec (  0.0%)
W(internal)               :    0.000 sec (  0.0%)
L(virtual)                :   23.416 sec (  1.5%)
L(internal)               :    0.319 sec (  0.0%)
G(D)                      :  198.768 sec ( 12.3%)
G(Z)                      :    0.000 sec (  0.0%)
Z-Vector Solution         : 1292.083 sec ( 80.1%)
3-Index Derivative        :    0.000 sec (  0.0%)
2-Index Derivative        :    0.000 sec (  0.0%)
Separable Gradient (RIJ)  :    0.000 sec (  0.0%)
Separable Gradient (X)    :    0.000 sec (  0.0%)


---------------------------------------
MP2 TOTAL ENERGY:     -424.745867539 Eh
---------------------------------------

-------------------------   --------------------
FINAL SINGLE POINT ENERGY      -424.745867538537
-------------------------   --------------------


                            ***************************************
                            *     ORCA property calculations      *
                            ***************************************

                                    ---------------------
                                    Active property flags
                                    ---------------------
   (+) Dipole Moment


------------------------------------------------------------------------------
                       ORCA ELECTRIC PROPERTIES CALCULATION
------------------------------------------------------------------------------

Dipole Moment Calculation                       ... on
Quadrupole Moment Calculation                   ... off
Polarizability Calculation                      ... off
GBWName                                         ... dsgdb9nsd_115281.gbw
Electron density file                           ... dsgdb9nsd_115281.scfp.tmp

-------------
DIPOLE MOMENT
-------------
                                X             Y             Z
Electronic contribution:     -1.70382      -3.03580      -0.78521
Nuclear contribution   :      1.70407       3.02856       0.38169
                        -----------------------------------------
Total Dipole Moment    :      0.00025      -0.00724      -0.40352
                        -----------------------------------------
Magnitude (a.u.)       :      0.40358
Magnitude (Debye)      :      1.02582


                         *** MP2 UNRELAXED DENSITY ***

------------------------------------------------------------------------------
                       ORCA ELECTRIC PROPERTIES CALCULATION
------------------------------------------------------------------------------

Dipole Moment Calculation                       ... on
Quadrupole Moment Calculation                   ... off
Polarizability Calculation                      ... off
GBWName                                         ... dsgdb9nsd_115281.gbw
Electron density file                           ... dsgdb9nsd_115281.pmp2ur

-------------
DIPOLE MOMENT
-------------
                                X             Y             Z
Electronic contribution:     -1.70176      -3.03556      -0.76871
Nuclear contribution   :      1.70407       3.02856       0.38169
                        -----------------------------------------
Total Dipole Moment    :      0.00231      -0.00700      -0.38702
                        -----------------------------------------
Magnitude (a.u.)       :      0.38709
Magnitude (Debye)      :      0.98390


                           *** MP2 RELAXED DENSITY ***

------------------------------------------------------------------------------
                       ORCA ELECTRIC PROPERTIES CALCULATION
------------------------------------------------------------------------------

Dipole Moment Calculation                       ... on
Quadrupole Moment Calculation                   ... off
Polarizability Calculation                      ... off
GBWName                                         ... dsgdb9nsd_115281.gbw
Electron density file                           ... dsgdb9nsd_115281.pmp2re

-------------
DIPOLE MOMENT
-------------
                                X             Y             Z
Electronic contribution:     -1.69721      -3.03837      -0.73546
Nuclear contribution   :      1.70407       3.02856       0.38169
                        -----------------------------------------
Total Dipole Moment    :      0.00686      -0.00981      -0.35377
                        -----------------------------------------
Magnitude (a.u.)       :      0.35397
Magnitude (Debye)      :      0.89972


Timings for individual modules:

Sum of individual times         ...     1884.710 sec (=  31.412 min)
GTO integral calculation        ...        0.973 sec (=   0.016 min)   0.1 %
SCF iterations                  ...      269.957 sec (=   4.499 min)  14.3 %
MP2 module                      ...     1613.779 sec (=  26.896 min)  85.6 %
                             ****ORCA TERMINATED NORMALLY****
TOTAL RUN TIME: 0 days 0 hours 31 minutes 25 seconds 362 msec
