
                                 *****************
                                 * O   R   C   A *
                                 *****************

           --- An Ab Initio, DFT and Semiempirical electronic structure package ---

                  #######################################################
                  #                        -***-                        #
                  #  Department of molecular theory and spectroscopy    #
                  #              Directorship: Frank Neese              #
                  # Max Planck Institute for Chemical Energy Conversion #
                  #                  D-45470 Muelheim/Ruhr              #
                  #                       Germany                       #
                  #                                                     #
                  #                  All rights reserved                #
                  #                        -***-                        #
                  #######################################################


                         Program Version 3.0.3 - RELEASE   -


 With contributions from (in alphabetic order):
   Ute Becker             : Parallelization
   Dmytro Bykov           : SCF Hessian
   Dmitry Ganyushin       : Spin-Orbit,Spin-Spin,Magnetic field MRCI
   Andreas Hansen         : Spin unrestricted coupled pair/coupled cluster methods
   Dimitrios Liakos       : Extrapolation schemes; parallel MDCI
   Robert Izsak           : Overlap fitted RIJCOSX, COSX-SCS-MP3
   Christian Kollmar      : KDIIS, OOCD, Brueckner-CCSD(T), CCSD density
   Simone Kossmann        : Meta GGA functionals, TD-DFT gradient, OOMP2, MP2 Hessian
   Taras Petrenko         : DFT Hessian,TD-DFT gradient, ASA and ECA modules, normal mode analysis, Resonance Raman, ABS, FL, XAS/XES, NRVS
   Christoph Reimann      : Effective Core Potentials
   Michael Roemelt        : Restricted open shell CIS
   Christoph Riplinger    : Improved optimizer, TS searches, QM/MM, DLPNO-CCSD
   Barbara Sandhoefer     : DKH picture change effects
   Igor Schapiro          : Molecular dynamics
   Kantharuban Sivalingam : CASSCF convergence, NEVPT2
   Boris Wezisla          : Elementary symmetry handling
   Frank Wennmohs         : Technical directorship


 We gratefully acknowledge several colleagues who have allowed us to
 interface, adapt or use parts of their codes:
   Stefan Grimme, W. Hujo, H. Kruse, T. Risthaus : VdW corrections, initial TS optimization,
                                                   DFT functionals, gCP
   Ed Valeev                                     : LibInt (2-el integral package), F12 methods
   Garnet Chan, S. Sharma, R. Olivares           : DMRG
   Ulf Ekstrom                                   : XCFun DFT Library
   Mihaly Kallay                                 : mrcc  (arbitrary order and MRCC methods)
   Andreas Klamt, Michael Diedenhofen            : otool_cosmo (COSMO solvation model)
   Frank Weinhold                                : gennbo (NPA and NBO analysis)
   Christopher J. Cramer and Donald G. Truhlar   : smd solvation model


 Your calculation uses the libint2 library for the computation of 2-el integrals
 For citations please refer to: http://libint.valeyev.net

 This ORCA versions uses:
   CBLAS   interface :  Fast vector & matrix operations
   LAPACKE interface :  Fast linear algebra routines
   SCALAPACK package :  Parallel linear algebra routines


Your calculation utilizes the basis: Ahlrichs-TZV
Cite in your paper:
H - Kr: A. Schaefer, H. Horn and R. Ahlrichs, J. Chem. Phys. 97, 2571 (1992).

The def2-TZV basis will be loaded
Cite in your paper:
 	F. Weigend, R. Ahlrichs, Phys. Chem. Chem. Phys. 2005, 7, 3297.

================================================================================
                                        WARNINGS
                       Please study these warnings very carefully!
================================================================================
Now building the actual basis set


INFO   : the flag for use of LIBINT has been found!

================================================================================
                                       INPUT FILE
================================================================================
NAME = dsgdb9nsd_046473.inp
|  1> ! RI-MP2 RIJK def2-TZVP def2-TZVP/C def2-TZVP/JK TIGHTSCF
|  2> % maxcore 2000
|  3> % mp2 density relaxed end
|  4> *xyz 0 1
|  5>  O        0.0094263583     0.0100331984     0.1218753650 
|  6>  C       -0.0401555022     1.1992486900    -0.0348751511 
|  7>  C       -1.2714241405     2.0937993386    -0.0818588475 
|  8>  C       -0.8158731750     3.3852772115    -0.8021520391 
|  9>  C        0.6850886499     3.4822292584    -0.5342381581 
| 10>  C        1.6071742635     4.4772257849    -1.2025079275 
| 11>  C        1.3171891761     4.6345575075     0.2508583102 
| 12>  C        1.2007349368     2.1213898374    -0.2267646168 
| 13>  O        2.3482846675     1.7689519455    -0.1125402611 
| 14>  H       -2.1186450782     1.5864092077    -0.5471567326 
| 15>  H       -1.5521977359     2.3100230174     0.9576925757 
| 16>  H       -1.0002950183     3.2925813828    -1.8784442505 
| 17>  H       -1.3610209713     4.2673724420    -0.4572818915 
| 18>  H        2.5836959190     4.0984614431    -1.4854397284 
| 19>  H        1.1523010031     5.1719116227    -1.9006130251 
| 20>  H        0.6469337307     5.4264854375     0.5680275636 
| 21>  H        2.0938387464     4.3667079846     0.9587656449 
| 22> *
| 23> 
| 24>                          ****END OF INPUT****
================================================================================

                       ****************************
                       * Single Point Calculation *
                       ****************************

---------------------------------
CARTESIAN COORDINATES (ANGSTROEM)
---------------------------------
  O      0.009426    0.010033    0.121875
  C     -0.040156    1.199249   -0.034875
  C     -1.271424    2.093799   -0.081859
  C     -0.815873    3.385277   -0.802152
  C      0.685089    3.482229   -0.534238
  C      1.607174    4.477226   -1.202508
  C      1.317189    4.634558    0.250858
  C      1.200735    2.121390   -0.226765
  O      2.348285    1.768952   -0.112540
  H     -2.118645    1.586409   -0.547157
  H     -1.552198    2.310023    0.957693
  H     -1.000295    3.292581   -1.878444
  H     -1.361021    4.267372   -0.457282
  H      2.583696    4.098461   -1.485440
  H      1.152301    5.171912   -1.900613
  H      0.646934    5.426485    0.568028
  H      2.093839    4.366708    0.958766

----------------------------
CARTESIAN COORDINATES (A.U.)
----------------------------
  NO LB      ZA    FRAG    MASS        X           Y           Z
   0 O     8.0000    0    15.999          0.017813235627216          0.018959997223297          0.230311062321691
   1 C     6.0000    0    12.011         -0.075882901928072          2.266251590563825         -0.065904484458122
   2 C     6.0000    0    12.011         -2.402643425601215          3.956707329339451         -0.154690803413424
   3 C     6.0000    0    12.011         -1.541776860762807          6.397246817139610         -1.515847671665492
   4 C     6.0000    0    12.011          1.294629925768857          6.580459633903699         -1.009563809099523
   5 C     6.0000    0    12.011          3.037119207501590          8.460730573191618         -2.272410656844232
   6 C     6.0000    0    12.011          2.489126809394372          8.758044441083689          0.474053504696264
   7 C     6.0000    0    12.011          2.269060189983243          4.008845815969735         -0.428523022615598
   8 O     8.0000    0    15.999          4.437614906061327          3.342834721062192         -0.212670272518991
   9 H     1.0000    0     1.008         -4.003658972778174          2.997878938883997         -1.033976376945182
  10 H     1.0000    0     1.008         -2.933228626543627          4.365310865940406          1.809776688562647
  11 H     1.0000    0     1.008         -1.890283637712747          6.222077087139732         -3.549745191283968
  12 H     1.0000    0     1.008         -2.571956898280496          8.064165226822752         -0.864137540936492
  13 H     1.0000    0     1.008          4.882477700239986          7.744969697894676         -2.807074275122366
  14 H     1.0000    0     1.008          2.177533319701743          9.773496555747258         -3.591638104002598
  15 H     1.0000    0     1.008          1.222527577818963         10.254571346586847          1.073416531722536
  16 H     1.0000    0     1.008          3.956781799288992          8.251882197701217          1.811804495473393

--------------------------------
INTERNAL COORDINATES (ANGSTROEM)
--------------------------------
 O      0   0   0   0.000000     0.000     0.000
 C      1   0   0   1.200526     0.000     0.000
 C      2   1   0   1.522646   128.271     0.000
 C      3   2   1   1.547341   105.465   200.173
 C      4   3   2   1.527764   105.104   333.407
 C      5   4   3   1.512232   124.285   170.876
 C      6   5   4   1.490342    61.306   110.769
 C      5   4   3   1.487385   108.590    23.235
 O      8   5   4   1.205873   128.090   170.780
 H      3   2   1   1.091664   111.571   325.325
 H      3   2   1   1.098296   107.048    82.374
 H      4   3   2   1.095905   109.696    91.694
 H      4   3   2   1.092801   112.330   210.701
 H      6   5   4   1.084946   115.744   219.808
 H      6   5   4   1.084827   116.746     1.207
 H      7   6   5   1.084891   118.840   254.450
 H      7   6   5   1.084463   118.109   105.896

---------------------------
INTERNAL COORDINATES (A.U.)
---------------------------
 O      0   0   0   0.000000     0.000     0.000
 C      1   0   0   2.268665     0.000     0.000
 C      2   1   0   2.877384   128.271     0.000
 C      3   2   1   2.924051   105.465   200.173
 C      4   3   2   2.887056   105.104   333.407
 C      5   4   3   2.857704   124.285   170.876
 C      6   5   4   2.816337    61.306   110.769
 C      5   4   3   2.810751   108.590    23.235
 O      8   5   4   2.278770   128.090   170.780
 H      3   2   1   2.062946   111.571   325.325
 H      3   2   1   2.075478   107.048    82.374
 H      4   3   2   2.070961   109.696    91.694
 H      4   3   2   2.065094   112.330   210.701
 H      6   5   4   2.050250   115.744   219.808
 H      6   5   4   2.050025   116.746     1.207
 H      7   6   5   2.050147   118.840   254.450
 H      7   6   5   2.049339   118.109   105.896

---------------------
BASIS SET INFORMATION
---------------------
There are 3 groups of distinct atoms

 Group   1 Type O   : 11s6p2d1f contracted to 5s3p2d1f pattern {62111/411/11/1}
 Group   2 Type C   : 11s6p2d1f contracted to 5s3p2d1f pattern {62111/411/11/1}
 Group   3 Type H   : 5s1p contracted to 3s1p pattern {311/1}

Atom   0O    basis set group =>   1
Atom   1C    basis set group =>   2
Atom   2C    basis set group =>   2
Atom   3C    basis set group =>   2
Atom   4C    basis set group =>   2
Atom   5C    basis set group =>   2
Atom   6C    basis set group =>   2
Atom   7C    basis set group =>   2
Atom   8O    basis set group =>   1
Atom   9H    basis set group =>   3
Atom  10H    basis set group =>   3
Atom  11H    basis set group =>   3
Atom  12H    basis set group =>   3
Atom  13H    basis set group =>   3
Atom  14H    basis set group =>   3
Atom  15H    basis set group =>   3
Atom  16H    basis set group =>   3
-------------------------------
AUXILIARY BASIS SET INFORMATION
-------------------------------
There are 3 groups of distinct atoms

 Group   1 Type O   : 14s10p6d2f1g contracted to 10s8p4d2f1g pattern {5111111111/31111111/3111/11/1}
 Group   2 Type C   : 14s10p6d2f1g contracted to 10s8p5d1f1g pattern {5111111111/31111111/21111/2/1}
 Group   3 Type H   : 4s2p2d contracted to 2s2p2d pattern {31/11/11}

Atom   0O    basis set group =>   1
Atom   1C    basis set group =>   2
Atom   2C    basis set group =>   2
Atom   3C    basis set group =>   2
Atom   4C    basis set group =>   2
Atom   5C    basis set group =>   2
Atom   6C    basis set group =>   2
Atom   7C    basis set group =>   2
Atom   8O    basis set group =>   1
Atom   9H    basis set group =>   3
Atom  10H    basis set group =>   3
Atom  11H    basis set group =>   3
Atom  12H    basis set group =>   3
Atom  13H    basis set group =>   3
Atom  14H    basis set group =>   3
Atom  15H    basis set group =>   3
Atom  16H    basis set group =>   3
------------------------------------------------------------------------------
                           ORCA GTO INTEGRAL CALCULATION
                           -- RI-GTO INTEGRALS CHOSEN --
------------------------------------------------------------------------------

                         BASIS SET STATISTICS AND STARTUP INFO

Gaussian basis set:
 # of primitive gaussian shells          ...  228
 # of primitive gaussian functions       ...  478
 # of contracted shells                  ...  131
 # of contracted basis functions         ...  327
 Highest angular momentum                ...    3
 Maximum contraction depth               ...    6
Auxiliary gaussian basis set:
 # of primitive gaussian shells          ...  361
 # of primitive gaussian functions       ... 1033
 # of contracted shells                  ...  273
 # of contracted aux-basis functions     ...  823
 Highest angular momentum                ...    4
 Maximum contraction depth               ...    5
Ratio of auxiliary to basis functions    ...  2.52
Integral package used                  ... LIBINT
 One Electron integrals                  ... done
 Ordering auxiliary basis shells         ... done
 Integral threshhold             Thresh  ...  2.500e-11
 Primitive cut-off               TCut    ...  2.500e-12
 Pre-screening matrix                    ... done
 Shell pair data                         ... 
 Ordering of the shell pairs             ... done (   0.001 sec) 7983 of 8646 pairs
 Determination of significant pairs      ... done (   0.000 sec)
 Creation of shell pair data             ... done (   0.002 sec)
 Storage of shell pair data              ... done (   0.001 sec)
 Shell pair data done in (   0.005 sec)
 Computing two index integrals           ... done
 Cholesky decomposition of the V-matrix  ... done


Timings:
 Total evaluation time                   ...   0.381 sec (  0.006 min)
 One electron matrix time                ...   0.092 sec (  0.002 min) = 24.2%
 Schwartz matrix evaluation time         ...   0.206 sec (  0.003 min) = 54.1%
 Two index repulsion integral time       ...   0.020 sec (  0.000 min) =  5.2%
 Cholesky decomposition of V             ...   0.030 sec (  0.001 min) =  8.0%
 Three index repulsion integral time     ...   0.000 sec (  0.000 min) =  0.0%

-------------------------------------------------------------------------------
                                 ORCA SCF
-------------------------------------------------------------------------------

------------
SCF SETTINGS
------------
Hamiltonian:
 Ab initio Hamiltonian  Method          .... Hartree-Fock(GTOs)
 RI-approximation to the Coulomb term is turned on
   Number of auxiliary basis functions  .... 823
   RI-JK (J+K treated both via RI)      .... on


General Settings:
 Integral files         IntName         .... dsgdb9nsd_046473
 Hartree-Fock type      HFTyp           .... RHF
 Total Charge           Charge          ....    0
 Multiplicity           Mult            ....    1
 Number of Electrons    NEL             ....   66
 Basis Dimension        Dim             ....  327
 Nuclear Repulsion      ENuc            ....    436.6977279470 Eh

Convergence Acceleration:
 DIIS                   CNVDIIS         .... on
   Start iteration      DIISMaxIt       ....    12
   Startup error        DIISStart       ....  0.200000
   # of expansion vecs  DIISMaxEq       ....     5
   Bias factor          DIISBfac        ....   1.050
   Max. coefficient     DIISMaxC        ....  10.000
 Newton-Raphson         CNVNR           .... off
 SOSCF                  CNVSOSCF        .... on
   Start iteration      SOSCFMaxIt      ....   150
   Startup grad/error   SOSCFStart      ....  0.003300
 Level Shifting         CNVShift        .... on
   Level shift para.    LevelShift      ....    0.2500
   Turn off err/grad.   ShiftErr        ....    0.0010
 Zerner damping         CNVZerner       .... off
 Static damping         CNVDamp         .... on
   Fraction old density DampFac         ....    0.7000
   Max. Damping (<1)    DampMax         ....    0.9800
   Min. Damping (>=0)   DampMin         ....    0.0000
   Turn off err/grad.   DampErr         ....    0.1000
 Fernandez-Rico         CNVRico         .... off

SCF Procedure:
 Maximum # iterations   MaxIter         ....   125
 SCF integral mode      SCFMode         .... Direct
   Integral package                     .... LIBINT
 Reset frequeny         DirectResetFreq ....    20
 Integral Threshold     Thresh          ....  2.500e-11 Eh
 Primitive CutOff       TCut            ....  2.500e-12 Eh

Convergence Tolerance:
 Convergence Check Mode ConvCheckMode   .... Total+1el-Energy
 Energy Change          TolE            ....  1.000e-08 Eh
 1-El. energy change                    ....  1.000e-05 Eh
 Orbital Gradient       TolG            ....  1.000e-05
 Orbital Rotation angle TolX            ....  1.000e-05
 DIIS Error             TolErr          ....  5.000e-07


Diagonalization of the overlap matrix:
Smallest eigenvalue                        ... 8.365e-05
Time for diagonalization                   ...    0.030 sec
Threshold for overlap eigenvalues          ... 1.000e-08
Number of eigenvalues below threshold      ... 0
Time for construction of square roots      ...    0.015 sec
Total time needed                          ...    0.045 sec

-------------------
DFT GRID GENERATION
-------------------

General Integration Accuracy     IntAcc      ...  4.340
Radial Grid Type                 RadialGrid  ... Gauss-Chebyshev
Angular Grid (max. acc.)         AngularGrid ... Lebedev-110
Angular grid pruning method      GridPruning ... 3 (G Style)
Weight generation scheme         WeightScheme... Becke
Basis function cutoff            BFCut       ...    1.0000e-11
Integration weight cutoff        WCut        ...    1.0000e-14
Grids for H and He will be reduced by one unit

# of grid points (after initial pruning)     ...  21376 (   0.0 sec)
# of grid points (after weights+screening)   ...  19685 (   0.1 sec)
nearest neighbour list constructed           ...    0.0 sec
Grid point re-assignment to atoms done       ...    0.0 sec
Grid point division into batches done        ...    0.0 sec
Reduced shell lists constructed in    1.2 sec

Total number of grid points                  ...    19685
Total number of batches                      ...      314
Average number of points per batch           ...       62
Average number of grid points per atom       ...     1158
Average number of shells per batch           ...    89.77 (68.52%)
Average number of basis functions per batch  ...   230.74 (70.56%)
Average number of large shells per batch     ...    70.76 (78.82%)
Average number of large basis fcns per batch ...   179.16 (77.64%)
Average number of aux-shells per batch       ...    89.77 (32.88%)
Average number of aux functions per batch    ...   230.74 (  inf%)
Maximum spatial batch extension              ...  20.95, 19.10, 20.96 au
Average spatial batch extension              ...   3.80,  3.66,  3.86 au

Time for grid setup =    1.267 sec

------------------------------
INITIAL GUESS: MODEL POTENTIAL
------------------------------
Loading Hartree-Fock densities                     ... done
Calculating cut-offs                               ... done
Setting up the integral package                    ... done
Initializing the effective Hamiltonian             ... done
Starting the Coulomb interaction                   ... done (   0.6 sec)
Reading the grid                                   ... done
Mapping shells                                     ... done
Starting the XC term evaluation                    ... done (   0.6 sec)
Transforming the Hamiltonian                       ... done (   0.0 sec)
Diagonalizing the Hamiltonian                      ... done (   0.0 sec)
Back transforming the eigenvectors                 ... done (   0.0 sec)
Now organizing SCF variables                       ... done
                      ------------------
                      INITIAL GUESS DONE (   2.7 sec)
                      ------------------
--------------
SCF ITERATIONS
--------------
ITER       Energy         Delta-E        Max-DP      RMS-DP      [F,P]     Damp
  0   -419.1927170554   0.000000000000 0.04811088  0.00098480  0.2881694 0.7000
  1   -419.0314492586   0.161267796877 0.08278466  0.00114818  0.2712872 0.7000
                               ***Turning on DIIS***
  2   -419.0707986676  -0.039349409075 0.06189875  0.00084608  0.1871152 0.7000
  3   -419.9398450988  -0.869046431172 0.01400114  0.00038393  0.1330354 0.7000
  4   -419.4366404466   0.503204652171 0.05520550  0.00097991  0.0859898 0.0000
  5   -419.5234328271  -0.086792380455 0.02405334  0.00033239  0.0374655 0.0000
  6   -419.4889339334   0.034498893740 0.00992849  0.00014178  0.0175991 0.0000
  7   -419.4993193616  -0.010385428218 0.00366291  0.00007026  0.0112415 0.0000
  8   -419.5094048111  -0.010085449536 0.00348151  0.00005929  0.0078512 0.0000
                      *** Initiating the SOSCF procedure ***
                           *** Shutting down DIIS ***
                      *** Re-Reading the Fockian *** 
                      *** Removing any level shift *** 
ITER      Energy       Delta-E        Grad      Rot      Max-DP    RMS-DP
  9   -419.57206704  -0.0626622266  0.000757  0.000757  0.000577  0.000014
 10   -419.57525203  -0.0031849966  0.000410  0.000649  0.000457  0.000009
 11   -419.57525485  -0.0000028156  0.000122  0.000641  0.000653  0.000014
 12   -419.57525600  -0.0000011479  0.000042  0.000042  0.000281  0.000004
 13   -419.57525616  -0.0000001657  0.000021  0.000035  0.000067  0.000001
 14   -419.57525617  -0.0000000114  0.000009  0.000029  0.000039  0.000001
 15   -419.57525618  -0.0000000027  0.000006  0.000028  0.000016  0.000000
 16   -419.57525618  -0.0000000008  0.000003  0.000019  0.000014  0.000000
                 **** Energy Check signals convergence ****
              ***Rediagonalizing the Fockian in SOSCF/NRSCF***

               *****************************************************
               *                     SUCCESS                       *
               *           SCF CONVERGED AFTER  17 CYCLES          *
               *****************************************************


----------------
TOTAL SCF ENERGY
----------------

Total Energy       :         -419.57525618 Eh          -11417.22316 eV

Components:
Nuclear Repulsion  :          436.69772795 Eh           11883.14931 eV
Electronic Energy  :         -856.27298413 Eh          -23300.37247 eV

One Electron Energy:        -1436.97507509 Eh          -39102.07970 eV
Two Electron Energy:          580.70209096 Eh           15801.70724 eV

Virial components:
Potential Energy   :         -838.59421027 Eh          -22819.30857 eV
Kinetic Energy     :          419.01895409 Eh           11402.08541 eV
Virial Ratio       :            2.00132763


---------------
SCF CONVERGENCE
---------------

  Last Energy change         ...   -3.1878e-10  Tolerance :   1.0000e-08
  Last MAX-Density change    ...    1.2097e-05  Tolerance :   1.0000e-07
  Last RMS-Density change    ...    1.4638e-07  Tolerance :   5.0000e-09
  Last Orbital Gradient      ...    9.8424e-07  Tolerance :   1.0000e-05
  Last Orbital Rotation      ...    7.2466e-06  Tolerance :   1.0000e-05

             **** THE GBW FILE WAS UPDATED (dsgdb9nsd_046473.gbw) ****
             **** DENSITY FILE WAS UPDATED (dsgdb9nsd_046473.scfp.tmp) ****
             **** ENERGY FILE WAS UPDATED (dsgdb9nsd_046473.en.tmp) ****
----------------
ORBITAL ENERGIES
----------------

  NO   OCC          E(Eh)            E(eV) 
   0   2.0000     -20.572533      -559.8071 
   1   2.0000     -20.565861      -559.6255 
   2   2.0000     -11.345109      -308.7161 
   3   2.0000     -11.341959      -308.6304 
   4   2.0000     -11.263906      -306.5065 
   5   2.0000     -11.258893      -306.3701 
   6   2.0000     -11.258253      -306.3526 
   7   2.0000     -11.257036      -306.3195 
   8   2.0000     -11.253413      -306.2209 
   9   2.0000      -1.419640       -38.6304 
  10   2.0000      -1.394614       -37.9494 
  11   2.0000      -1.188311       -32.3356 
  12   2.0000      -1.096498       -29.8372 
  13   2.0000      -0.939452       -25.5638 
  14   2.0000      -0.926282       -25.2054 
  15   2.0000      -0.849034       -23.1034 
  16   2.0000      -0.793441       -21.5906 
  17   2.0000      -0.722942       -19.6722 
  18   2.0000      -0.688930       -18.7467 
  19   2.0000      -0.684288       -18.6204 
  20   2.0000      -0.655980       -17.8501 
  21   2.0000      -0.647987       -17.6326 
  22   2.0000      -0.616436       -16.7741 
  23   2.0000      -0.575504       -15.6602 
  24   2.0000      -0.566801       -15.4235 
  25   2.0000      -0.560172       -15.2431 
  26   2.0000      -0.551731       -15.0134 
  27   2.0000      -0.535669       -14.5763 
  28   2.0000      -0.498049       -13.5526 
  29   2.0000      -0.490225       -13.3397 
  30   2.0000      -0.458250       -12.4696 
  31   2.0000      -0.420393       -11.4395 
  32   2.0000      -0.387859       -10.5542 
  33   0.0000       0.056652         1.5416 
  34   0.0000       0.123717         3.3665 
  35   0.0000       0.146175         3.9776 
  36   0.0000       0.156275         4.2524 
  37   0.0000       0.176418         4.8006 
  38   0.0000       0.190391         5.1808 
  39   0.0000       0.196645         5.3510 
  40   0.0000       0.198878         5.4117 
  41   0.0000       0.209028         5.6879 
  42   0.0000       0.227517         6.1910 
  43   0.0000       0.233407         6.3513 
  44   0.0000       0.254324         6.9205 
  45   0.0000       0.261544         7.1170 
  46   0.0000       0.280395         7.6299 
  47   0.0000       0.285973         7.7817 
  48   0.0000       0.303375         8.2553 
  49   0.0000       0.311046         8.4640 
  50   0.0000       0.333752         9.0818 
  51   0.0000       0.334960         9.1147 
  52   0.0000       0.343801         9.3553 
  53   0.0000       0.366888         9.9835 
  54   0.0000       0.385187        10.4815 
  55   0.0000       0.391966        10.6660 
  56   0.0000       0.404686        11.0121 
  57   0.0000       0.420862        11.4522 
  58   0.0000       0.425450        11.5771 
  59   0.0000       0.449693        12.2368 
  60   0.0000       0.471777        12.8377 
  61   0.0000       0.491990        13.3877 
  62   0.0000       0.494314        13.4510 
  63   0.0000       0.511884        13.9291 
  64   0.0000       0.519787        14.1441 
  65   0.0000       0.525684        14.3046 
  66   0.0000       0.537511        14.6264 
  67   0.0000       0.541942        14.7470 
  68   0.0000       0.555175        15.1071 
  69   0.0000       0.556290        15.1374 
  70   0.0000       0.566456        15.4141 
  71   0.0000       0.575128        15.6500 
  72   0.0000       0.580979        15.8093 
  73   0.0000       0.589721        16.0471 
  74   0.0000       0.597382        16.2556 
  75   0.0000       0.616764        16.7830 
  76   0.0000       0.621245        16.9049 
  77   0.0000       0.630188        17.1483 
  78   0.0000       0.655432        17.8352 
  79   0.0000       0.662902        18.0385 
  80   0.0000       0.673859        18.3366 
  81   0.0000       0.681739        18.5511 
  82   0.0000       0.704422        19.1683 
  83   0.0000       0.726213        19.7612 
  84   0.0000       0.731059        19.8931 
  85   0.0000       0.734167        19.9777 
  86   0.0000       0.768963        20.9246 
  87   0.0000       0.787370        21.4254 
  88   0.0000       0.804347        21.8874 
  89   0.0000       0.833571        22.6826 
  90   0.0000       0.853959        23.2374 
  91   0.0000       0.870766        23.6948 
  92   0.0000       0.895386        24.3647 
  93   0.0000       0.945267        25.7220 
  94   0.0000       0.953445        25.9446 
  95   0.0000       0.961987        26.1770 
  96   0.0000       0.995438        27.0872 
  97   0.0000       1.012262        27.5450 
  98   0.0000       1.039458        28.2851 
  99   0.0000       1.060255        28.8510 
 100   0.0000       1.069877        29.1128 
 101   0.0000       1.077819        29.3289 
 102   0.0000       1.091820        29.7099 
 103   0.0000       1.096102        29.8265 
 104   0.0000       1.117250        30.4019 
 105   0.0000       1.129684        30.7403 
 106   0.0000       1.146322        31.1930 
 107   0.0000       1.163432        31.6586 
 108   0.0000       1.198331        32.6082 
 109   0.0000       1.213744        33.0277 
 110   0.0000       1.226123        33.3645 
 111   0.0000       1.233964        33.5779 
 112   0.0000       1.250562        34.0295 
 113   0.0000       1.277018        34.7494 
 114   0.0000       1.290840        35.1256 
 115   0.0000       1.312843        35.7243 
 116   0.0000       1.323125        36.0041 
 117   0.0000       1.326835        36.1050 
 118   0.0000       1.356464        36.9113 
 119   0.0000       1.365247        37.1503 
 120   0.0000       1.409235        38.3472 
 121   0.0000       1.433196        38.9993 
 122   0.0000       1.453014        39.5385 
 123   0.0000       1.490739        40.5651 
 124   0.0000       1.500802        40.8389 
 125   0.0000       1.512695        41.1625 
 126   0.0000       1.527531        41.5662 
 127   0.0000       1.572281        42.7839 
 128   0.0000       1.578749        42.9599 
 129   0.0000       1.617968        44.0272 
 130   0.0000       1.643573        44.7239 
 131   0.0000       1.712982        46.6126 
 132   0.0000       1.744333        47.4657 
 133   0.0000       1.759524        47.8791 
 134   0.0000       1.769040        48.1380 
 135   0.0000       1.787961        48.6529 
 136   0.0000       1.803672        49.0804 
 137   0.0000       1.829400        49.7805 
 138   0.0000       1.835006        49.9331 
 139   0.0000       1.856860        50.5277 
 140   0.0000       1.870936        50.9108 
 141   0.0000       1.884070        51.2681 
 142   0.0000       1.890815        51.4517 
 143   0.0000       1.897384        51.6304 
 144   0.0000       1.922786        52.3217 
 145   0.0000       1.951594        53.1056 
 146   0.0000       1.991881        54.2018 
 147   0.0000       2.010986        54.7217 
 148   0.0000       2.030341        55.2484 
 149   0.0000       2.050480        55.7964 
 150   0.0000       2.076710        56.5101 
 151   0.0000       2.083430        56.6930 
 152   0.0000       2.105371        57.2901 
 153   0.0000       2.133946        58.0676 
 154   0.0000       2.147530        58.4373 
 155   0.0000       2.159497        58.7629 
 156   0.0000       2.181927        59.3733 
 157   0.0000       2.218850        60.3780 
 158   0.0000       2.226585        60.5885 
 159   0.0000       2.263885        61.6035 
 160   0.0000       2.271360        61.8068 
 161   0.0000       2.298088        62.5341 
 162   0.0000       2.325395        63.2772 
 163   0.0000       2.357840        64.1601 
 164   0.0000       2.364595        64.3439 
 165   0.0000       2.388972        65.0072 
 166   0.0000       2.444286        66.5124 
 167   0.0000       2.459730        66.9327 
 168   0.0000       2.474298        67.3291 
 169   0.0000       2.487255        67.6816 
 170   0.0000       2.511794        68.3494 
 171   0.0000       2.537347        69.0447 
 172   0.0000       2.557074        69.5815 
 173   0.0000       2.600891        70.7738 
 174   0.0000       2.631406        71.6042 
 175   0.0000       2.663286        72.4717 
 176   0.0000       2.677787        72.8663 
 177   0.0000       2.690300        73.2068 
 178   0.0000       2.706475        73.6469 
 179   0.0000       2.729200        74.2653 
 180   0.0000       2.748608        74.7934 
 181   0.0000       2.755484        74.9805 
 182   0.0000       2.778762        75.6140 
 183   0.0000       2.787303        75.8464 
 184   0.0000       2.814906        76.5975 
 185   0.0000       2.828257        76.9608 
 186   0.0000       2.840027        77.2811 
 187   0.0000       2.848053        77.4995 
 188   0.0000       2.867972        78.0415 
 189   0.0000       2.884558        78.4928 
 190   0.0000       2.907618        79.1203 
 191   0.0000       2.923601        79.5552 
 192   0.0000       2.930970        79.7557 
 193   0.0000       2.950111        80.2766 
 194   0.0000       2.960698        80.5647 
 195   0.0000       2.982115        81.1475 
 196   0.0000       2.985974        81.2525 
 197   0.0000       3.023317        82.2686 
 198   0.0000       3.035106        82.5894 
 199   0.0000       3.064902        83.4002 
 200   0.0000       3.090086        84.0855 
 201   0.0000       3.115149        84.7675 
 202   0.0000       3.138103        85.3921 
 203   0.0000       3.190924        86.8295 
 204   0.0000       3.194243        86.9198 
 205   0.0000       3.201849        87.1267 
 206   0.0000       3.234072        88.0036 
 207   0.0000       3.252994        88.5185 
 208   0.0000       3.293888        89.6312 
 209   0.0000       3.311577        90.1126 
 210   0.0000       3.322356        90.4059 
 211   0.0000       3.345474        91.0350 
 212   0.0000       3.353960        91.2659 
 213   0.0000       3.367189        91.6259 
 214   0.0000       3.388893        92.2165 
 215   0.0000       3.393064        92.3300 
 216   0.0000       3.406583        92.6978 
 217   0.0000       3.417417        92.9926 
 218   0.0000       3.444856        93.7393 
 219   0.0000       3.462878        94.2297 
 220   0.0000       3.476323        94.5955 
 221   0.0000       3.481561        94.7381 
 222   0.0000       3.491864        95.0184 
 223   0.0000       3.509914        95.5096 
 224   0.0000       3.527964        96.0008 
 225   0.0000       3.536335        96.2286 
 226   0.0000       3.546724        96.5113 
 227   0.0000       3.562968        96.9533 
 228   0.0000       3.594704        97.8169 
 229   0.0000       3.599755        97.9543 
 230   0.0000       3.638391        99.0057 
 231   0.0000       3.655392        99.4683 
 232   0.0000       3.690917       100.4349 
 233   0.0000       3.693775       100.5127 
 234   0.0000       3.709929       100.9523 
 235   0.0000       3.718748       101.1923 
 236   0.0000       3.724432       101.3469 
 237   0.0000       3.738099       101.7189 
 238   0.0000       3.753135       102.1280 
 239   0.0000       3.780228       102.8652 
 240   0.0000       3.833819       104.3235 
 241   0.0000       3.842437       104.5580 
 242   0.0000       3.870855       105.3313 
 243   0.0000       3.884930       105.7143 
 244   0.0000       3.910352       106.4061 
 245   0.0000       3.931153       106.9721 
 246   0.0000       3.953503       107.5803 
 247   0.0000       3.968537       107.9894 
 248   0.0000       3.996856       108.7600 
 249   0.0000       4.021834       109.4397 
 250   0.0000       4.063120       110.5631 
 251   0.0000       4.103543       111.6631 
 252   0.0000       4.109439       111.8235 
 253   0.0000       4.127130       112.3049 
 254   0.0000       4.152792       113.0032 
 255   0.0000       4.180212       113.7494 
 256   0.0000       4.228715       115.0692 
 257   0.0000       4.241441       115.4155 
 258   0.0000       4.262588       115.9909 
 259   0.0000       4.279127       116.4410 
 260   0.0000       4.320964       117.5794 
 261   0.0000       4.354097       118.4810 
 262   0.0000       4.362051       118.6974 
 263   0.0000       4.396283       119.6289 
 264   0.0000       4.423263       120.3631 
 265   0.0000       4.427750       120.4852 
 266   0.0000       4.457744       121.3014 
 267   0.0000       4.479767       121.9006 
 268   0.0000       4.508292       122.6769 
 269   0.0000       4.544287       123.6563 
 270   0.0000       4.571141       124.3871 
 271   0.0000       4.617917       125.6599 
 272   0.0000       4.664459       126.9264 
 273   0.0000       4.697250       127.8187 
 274   0.0000       4.713012       128.2476 
 275   0.0000       4.772443       129.8648 
 276   0.0000       4.786090       130.2361 
 277   0.0000       4.796552       130.5208 
 278   0.0000       4.845108       131.8421 
 279   0.0000       4.917608       133.8149 
 280   0.0000       4.935352       134.2978 
 281   0.0000       4.936632       134.3326 
 282   0.0000       4.995161       135.9252 
 283   0.0000       5.016764       136.5131 
 284   0.0000       5.048278       137.3706 
 285   0.0000       5.112122       139.1079 
 286   0.0000       5.162294       140.4732 
 287   0.0000       5.243045       142.6705 
 288   0.0000       5.266079       143.2973 
 289   0.0000       5.269824       143.3992 
 290   0.0000       5.311252       144.5265 
 291   0.0000       5.448876       148.2714 
 292   0.0000       5.503138       149.7480 
 293   0.0000       5.580435       151.8513 
 294   0.0000       5.612979       152.7369 
 295   0.0000       5.630742       153.2203 
 296   0.0000       5.659447       154.0014 
 297   0.0000       5.672761       154.3637 
 298   0.0000       5.972924       162.5315 
 299   0.0000       6.065447       165.0492 
 300   0.0000       6.145109       167.2169 
 301   0.0000       6.254455       170.1924 
 302   0.0000       6.549175       178.2121 
 303   0.0000       6.757527       183.8817 
 304   0.0000       6.844123       186.2381 
 305   0.0000       6.868634       186.9050 
 306   0.0000       6.922814       188.3793 
 307   0.0000       6.929220       188.5537 
 308   0.0000       6.976888       189.8508 
 309   0.0000       7.036303       191.4675 
 310   0.0000       7.129231       193.9962 
 311   0.0000       7.282535       198.1678 
 312   0.0000       7.308935       198.8862 
 313   0.0000       7.366458       200.4515 
 314   0.0000       7.447325       202.6520 
 315   0.0000       7.581894       206.3138 
 316   0.0000       7.627265       207.5484 
 317   0.0000       7.687688       209.1926 
 318   0.0000      23.462577       638.4492 
 319   0.0000      23.528968       640.2558 
 320   0.0000      23.559506       641.0868 
 321   0.0000      23.634710       643.1332 
 322   0.0000      23.851099       649.0214 
 323   0.0000      24.118221       656.2901 
 324   0.0000      24.509593       666.9399 
 325   0.0000      45.435633      1236.3664 
 326   0.0000      45.621682      1241.4291 

                    ********************************
                    * MULLIKEN POPULATION ANALYSIS *
                    ********************************

-----------------------
MULLIKEN ATOMIC CHARGES
-----------------------
   0 O :   -0.368685
   1 C :    0.258069
   2 C :   -0.181732
   3 C :   -0.158706
   4 C :    0.107057
   5 C :   -0.231597
   6 C :   -0.257366
   7 C :    0.243121
   8 O :   -0.414202
   9 H :    0.135370
  10 H :    0.123768
  11 H :    0.107162
  12 H :    0.109458
  13 H :    0.143871
  14 H :    0.124964
  15 H :    0.119955
  16 H :    0.139492
Sum of atomic charges:    0.0000000

--------------------------------
MULLIKEN REDUCED ORBITAL CHARGES
--------------------------------
  0 O s       :     3.836023  s :     3.836023
      pz      :     1.296538  p :     4.492844
      px      :     1.833760
      py      :     1.362546
      dz2     :     0.003532  d :     0.037652
      dxz     :     0.000195
      dyz     :     0.014236
      dx2y2   :     0.011285
      dxy     :     0.008403
      f0      :     0.000160  f :     0.002166
      f+1     :     0.000011
      f-1     :     0.000248
      f+2     :     0.000559
      f-2     :     0.000027
      f+3     :     0.000552
      f-3     :     0.000609
  1 C s       :     3.155334  s :     3.155334
      pz      :     0.664529  p :     2.364220
      px      :     0.940176
      py      :     0.759515
      dz2     :     0.007574  d :     0.203604
      dxz     :     0.011873
      dyz     :     0.046349
      dx2y2   :     0.027272
      dxy     :     0.110537
      f0      :     0.001985  f :     0.018772
      f+1     :     0.000859
      f-1     :     0.001717
      f+2     :     0.002806
      f-2     :     0.001005
      f+3     :     0.006929
      f-3     :     0.003470
  2 C s       :     3.126477  s :     3.126477
      pz      :     1.038096  p :     2.960255
      px      :     0.969194
      py      :     0.952965
      dz2     :     0.021590  d :     0.088951
      dxz     :     0.009240
      dyz     :     0.013072
      dx2y2   :     0.017493
      dxy     :     0.027555
      f0      :     0.000917  f :     0.006050
      f+1     :     0.000444
      f-1     :     0.000830
      f+2     :     0.000387
      f-2     :     0.000915
      f+3     :     0.000900
      f-3     :     0.001656
  3 C s       :     3.143586  s :     3.143586
      pz      :     1.013776  p :     2.903825
      px      :     0.897252
      py      :     0.992797
      dz2     :     0.024859  d :     0.104634
      dxz     :     0.018462
      dyz     :     0.012660
      dx2y2   :     0.022550
      dxy     :     0.026104
      f0      :     0.001344  f :     0.006660
      f+1     :     0.000592
      f-1     :     0.000578
      f+2     :     0.001036
      f-2     :     0.000530
      f+3     :     0.001475
      f-3     :     0.001106
  4 C s       :     3.025904  s :     3.025904
      pz      :     1.070160  p :     2.720715
      px      :     0.838423
      py      :     0.812132
      dz2     :     0.020074  d :     0.134178
      dxz     :     0.024125
      dyz     :     0.018802
      dx2y2   :     0.038482
      dxy     :     0.032696
      f0      :     0.001160  f :     0.012147
      f+1     :     0.001485
      f-1     :     0.001627
      f+2     :     0.001597
      f-2     :     0.001323
      f+3     :     0.002461
      f-3     :     0.002493
  5 C s       :     3.232943  s :     3.232943
      pz      :     0.914731  p :     2.907723
      px      :     1.000040
      py      :     0.992952
      dz2     :     0.018704  d :     0.082658
      dxz     :     0.015425
      dyz     :     0.020099
      dx2y2   :     0.011756
      dxy     :     0.016673
      f0      :     0.001450  f :     0.008272
      f+1     :     0.001627
      f-1     :     0.001644
      f+2     :     0.000662
      f-2     :     0.001380
      f+3     :     0.000601
      f-3     :     0.000908
  6 C s       :     3.244013  s :     3.244013
      pz      :     0.929320  p :     2.919134
      px      :     1.034265
      py      :     0.955550
      dz2     :     0.019100  d :     0.085959
      dxz     :     0.020894
      dyz     :     0.016713
      dx2y2   :     0.009084
      dxy     :     0.020168
      f0      :     0.001514  f :     0.008260
      f+1     :     0.001357
      f-1     :     0.001936
      f+2     :     0.000975
      f-2     :     0.001124
      f+3     :     0.000730
      f-3     :     0.000623
  7 C s       :     3.167042  s :     3.167042
      pz      :     0.670970  p :     2.346820
      px      :     0.773277
      py      :     0.902573
      dz2     :     0.009015  d :     0.223644
      dxz     :     0.044932
      dyz     :     0.020536
      dx2y2   :     0.053841
      dxy     :     0.095321
      f0      :     0.002174  f :     0.019373
      f+1     :     0.001473
      f-1     :     0.001053
      f+2     :     0.002668
      f-2     :     0.001508
      f+3     :     0.005529
      f-3     :     0.004968
  8 O s       :     3.844043  s :     3.844043
      pz      :     1.352192  p :     4.530515
      px      :     1.403890
      py      :     1.774434
      dz2     :     0.003414  d :     0.037497
      dxz     :     0.012479
      dyz     :     0.001321
      dx2y2   :     0.010628
      dxy     :     0.009655
      f0      :     0.000184  f :     0.002146
      f+1     :     0.000223
      f-1     :     0.000030
      f+2     :     0.000374
      f-2     :     0.000171
      f+3     :     0.000572
      f-3     :     0.000592
  9 H s       :     0.841906  s :     0.841906
      pz      :     0.005446  p :     0.022724
      px      :     0.011110
      py      :     0.006167
 10 H s       :     0.853461  s :     0.853461
      pz      :     0.013821  p :     0.022771
      px      :     0.004834
      py      :     0.004116
 11 H s       :     0.870582  s :     0.870582
      pz      :     0.014735  p :     0.022256
      px      :     0.003925
      py      :     0.003596
 12 H s       :     0.868284  s :     0.868284
      pz      :     0.004478  p :     0.022258
      px      :     0.006649
      py      :     0.011130
 13 H s       :     0.832659  s :     0.832659
      pz      :     0.004237  p :     0.023471
      px      :     0.013918
      py      :     0.005316
 14 H s       :     0.851899  s :     0.851899
      pz      :     0.008871  p :     0.023136
      px      :     0.005102
      py      :     0.009164
 15 H s       :     0.856791  s :     0.856791
      pz      :     0.004623  p :     0.023254
      px      :     0.007811
      py      :     0.010821
 16 H s       :     0.837078  s :     0.837078
      pz      :     0.008923  p :     0.023430
      px      :     0.010296
      py      :     0.004210


                     *******************************
                     * LOEWDIN POPULATION ANALYSIS *
                     *******************************

----------------------
LOEWDIN ATOMIC CHARGES
----------------------
   0 O :    0.123175
   1 C :   -0.225952
   2 C :   -0.185168
   3 C :   -0.179086
   4 C :   -0.205684
   5 C :   -0.161295
   6 C :   -0.155383
   7 C :   -0.203986
   8 O :    0.109683
   9 H :    0.139974
  10 H :    0.149421
  11 H :    0.133959
  12 H :    0.130746
  13 H :    0.138504
  14 H :    0.129239
  15 H :    0.126815
  16 H :    0.135039

-------------------------------
LOEWDIN REDUCED ORBITAL CHARGES
-------------------------------
  0 O s       :     3.400184  s :     3.400184
      pz      :     1.228969  p :     4.400180
      px      :     1.664519
      py      :     1.506692
      dz2     :     0.007629  d :     0.070546
      dxz     :     0.000442
      dyz     :     0.014885
      dx2y2   :     0.025090
      dxy     :     0.022501
      f0      :     0.000349  f :     0.005914
      f+1     :     0.000116
      f-1     :     0.000832
      f+2     :     0.000794
      f-2     :     0.000102
      f+3     :     0.001987
      f-3     :     0.001734
  1 C s       :     2.763934  s :     2.763934
      pz      :     0.643254  p :     2.607086
      px      :     0.984697
      py      :     0.979134
      dz2     :     0.051489  d :     0.747663
      dxz     :     0.047305
      dyz     :     0.127521
      dx2y2   :     0.182316
      dxy     :     0.339032
      f0      :     0.007528  f :     0.107269
      f+1     :     0.003359
      f-1     :     0.010577
      f+2     :     0.015425
      f-2     :     0.006138
      f+3     :     0.046460
      f-3     :     0.017782
  2 C s       :     2.773847  s :     2.773847
      pz      :     1.021081  p :     3.017967
      px      :     0.995938
      py      :     1.000948
      dz2     :     0.080591  d :     0.356864
      dxz     :     0.043444
      dyz     :     0.054430
      dx2y2   :     0.072401
      dxy     :     0.105997
      f0      :     0.003942  f :     0.036490
      f+1     :     0.002838
      f-1     :     0.005580
      f+2     :     0.003402
      f-2     :     0.005148
      f+3     :     0.006567
      f-3     :     0.009013
  3 C s       :     2.763739  s :     2.763739
      pz      :     1.016381  p :     2.985114
      px      :     0.973765
      py      :     0.994968
      dz2     :     0.100481  d :     0.391323
      dxz     :     0.066711
      dyz     :     0.044149
      dx2y2   :     0.083128
      dxy     :     0.096855
      f0      :     0.005218  f :     0.038910
      f+1     :     0.003504
      f-1     :     0.003768
      f+2     :     0.007487
      f-2     :     0.005092
      f+3     :     0.007218
      f-3     :     0.006624
  4 C s       :     2.666867  s :     2.666867
      pz      :     0.991694  p :     2.894189
      px      :     0.964784
      py      :     0.937711
      dz2     :     0.091309  d :     0.577768
      dxz     :     0.093539
      dyz     :     0.082011
      dx2y2   :     0.164702
      dxy     :     0.146206
      f0      :     0.004003  f :     0.066861
      f+1     :     0.007649
      f-1     :     0.009929
      f+2     :     0.010103
      f-2     :     0.007270
      f+3     :     0.012805
      f-3     :     0.015101
  5 C s       :     2.764512  s :     2.764512
      pz      :     0.998464  p :     2.989065
      px      :     1.000235
      py      :     0.990367
      dz2     :     0.074665  d :     0.364860
      dxz     :     0.086749
      dyz     :     0.095453
      dx2y2   :     0.055534
      dxy     :     0.052460
      f0      :     0.006832  f :     0.042857
      f+1     :     0.010407
      f-1     :     0.009178
      f+2     :     0.002749
      f-2     :     0.005832
      f+3     :     0.002934
      f-3     :     0.004925
  6 C s       :     2.769590  s :     2.769590
      pz      :     1.004167  p :     2.982401
      px      :     1.013411
      py      :     0.964823
      dz2     :     0.076481  d :     0.361607
      dxz     :     0.098583
      dyz     :     0.086036
      dx2y2   :     0.038774
      dxy     :     0.061733
      f0      :     0.006811  f :     0.041784
      f+1     :     0.006658
      f-1     :     0.013200
      f+2     :     0.004762
      f-2     :     0.003366
      f+3     :     0.002876
      f-3     :     0.004112
  7 C s       :     2.747872  s :     2.747872
      pz      :     0.651817  p :     2.588706
      px      :     0.973735
      py      :     0.963154
      dz2     :     0.056682  d :     0.758833
      dxz     :     0.118906
      dyz     :     0.071585
      dx2y2   :     0.217595
      dxy     :     0.294063
      f0      :     0.007797  f :     0.108576
      f+1     :     0.009801
      f-1     :     0.004489
      f+2     :     0.014907
      f-2     :     0.008514
      f+3     :     0.034081
      f-3     :     0.028986
  8 O s       :     3.397406  s :     3.397406
      pz      :     1.273065  p :     4.417692
      px      :     1.519386
      py      :     1.625241
      dz2     :     0.007662  d :     0.069421
      dxz     :     0.013088
      dyz     :     0.001622
      dx2y2   :     0.024288
      dxy     :     0.022762
      f0      :     0.000359  f :     0.005797
      f+1     :     0.000802
      f-1     :     0.000170
      f+2     :     0.000507
      f-2     :     0.000294
      f+3     :     0.001890
      f-3     :     0.001776
  9 H s       :     0.799928  s :     0.799928
      pz      :     0.016478  p :     0.060098
      px      :     0.026541
      py      :     0.017078
 10 H s       :     0.791259  s :     0.791259
      pz      :     0.032783  p :     0.059320
      px      :     0.013554
      py      :     0.012983
 11 H s       :     0.807940  s :     0.807940
      pz      :     0.034075  p :     0.058100
      px      :     0.011950
      py      :     0.012075
 12 H s       :     0.810732  s :     0.810732
      pz      :     0.014629  p :     0.058523
      px      :     0.017147
      py      :     0.026747
 13 H s       :     0.798803  s :     0.798803
      pz      :     0.012265  p :     0.062693
      px      :     0.034211
      py      :     0.016217
 14 H s       :     0.809450  s :     0.809450
      pz      :     0.021453  p :     0.061312
      px      :     0.016257
      py      :     0.023601
 15 H s       :     0.811703  s :     0.811703
      pz      :     0.012961  p :     0.061482
      px      :     0.022074
      py      :     0.026448
 16 H s       :     0.802290  s :     0.802290
      pz      :     0.021862  p :     0.062671
      px      :     0.027348
      py      :     0.013461


                      *****************************
                      * MAYER POPULATION ANALYSIS *
                      *****************************

  NA   - Mulliken gross atomic population
  ZA   - Total nuclear charge
  QA   - Mulliken gross atomic charge
  VA   - Mayer's total valence
  BVA  - Mayer's bonded valence
  FA   - Mayer's free valence

  ATOM       NA         ZA         QA         VA         BVA        FA
  0 O      8.3687     8.0000    -0.3687     2.0614     2.0614    -0.0000
  1 C      5.7419     6.0000     0.2581     3.9412     3.9412    -0.0000
  2 C      6.1817     6.0000    -0.1817     3.8397     3.8397     0.0000
  3 C      6.1587     6.0000    -0.1587     3.8121     3.8121     0.0000
  4 C      5.8929     6.0000     0.1071     3.4854     3.4854     0.0000
  5 C      6.2316     6.0000    -0.2316     3.9148     3.9148     0.0000
  6 C      6.2574     6.0000    -0.2574     3.9749     3.9749    -0.0000
  7 C      5.7569     6.0000     0.2431     3.8944     3.8944    -0.0000
  8 O      8.4142     8.0000    -0.4142     2.0390     2.0390    -0.0000
  9 H      0.8646     1.0000     0.1354     0.9859     0.9859     0.0000
 10 H      0.8762     1.0000     0.1238     0.9837     0.9837    -0.0000
 11 H      0.8928     1.0000     0.1072     0.9726     0.9726     0.0000
 12 H      0.8905     1.0000     0.1095     0.9713     0.9713     0.0000
 13 H      0.8561     1.0000     0.1439     0.9795     0.9795     0.0000
 14 H      0.8750     1.0000     0.1250     0.9717     0.9717     0.0000
 15 H      0.8800     1.0000     0.1200     0.9705     0.9705     0.0000
 16 H      0.8605     1.0000     0.1395     0.9767     0.9767    -0.0000

  Mayer bond orders larger than 0.1
B(  0-O ,  1-C ) :   2.0629 B(  1-C ,  2-C ) :   0.9957 B(  1-C ,  7-C ) :   0.9388 
B(  2-C ,  3-C ) :   0.9738 B(  2-C ,  9-H ) :   0.9684 B(  2-C , 10-H ) :   0.9645 
B(  3-C ,  4-C ) :   0.9204 B(  3-C , 11-H ) :   0.9793 B(  3-C , 12-H ) :   0.9756 
B(  4-C ,  5-C ) :   0.8676 B(  4-C ,  6-C ) :   0.8744 B(  4-C ,  7-C ) :   0.9610 
B(  5-C ,  6-C ) :   1.0573 B(  5-C , 13-H ) :   0.9648 B(  5-C , 14-H ) :   0.9786 
B(  6-C , 15-H ) :   0.9761 B(  6-C , 16-H ) :   0.9668 B(  7-C ,  8-O ) :   1.9867 


-------
TIMINGS
-------

Total SCF time: 0 days 0 hours 2 min 58 sec 

Total time                  ....     178.668 sec
Sum of individual times     ....     182.480 sec  (102.1%)

Fock matrix formation       ....     176.980 sec  ( 99.1%)
Diagonalization             ....       0.719 sec  (  0.4%)
Density matrix formation    ....       0.057 sec  (  0.0%)
Population analysis         ....       0.146 sec  (  0.1%)
Initial guess               ....       2.691 sec  (  1.5%)
Orbital Transformation      ....       0.000 sec  (  0.0%)
Orbital Orthonormalization  ....       0.000 sec  (  0.0%)
DIIS solution               ....       0.202 sec  (  0.1%)
SOSCF solution              ....       0.418 sec  (  0.2%)

   <<< Auxbasis replaced with dsgdb9nsd_046473.AUXC.tmp (Dim=804) >>> 


------------------------------------------------------------------------------
                              ORCA MP2 CALCULATION
------------------------------------------------------------------------------

Freezing NCore=18 chemical core electrons

   <<< Use J-auxbasis for calculation of Separable RI-J derivative contributions dsgdb9nsd_046473.AUXJ.tmp (Dim=823) >>> 


---------------------
RI-MP2 ENERGY+DENSITY
---------------------
Dimension of the basis                    ...  327
Memory devoted to MP2                     ... 2000 MB   
Data format for buffers                   ... DOUBLE
Compression type for matrix containers    ... UNCOMPRESSED
Overall scaling of the MP2 energy         ...   1.000e+00 Eh
Calculating two index integrals           ... done (    0.016 sec)
Cholesky decomposition of V**-1           ... done (    0.102 sec)

-----------------
RI-TRANSFORMATION (AUX index driven)
-----------------

Dimension of the orbital-basis         ... 327
Dimension of the aux-basis             ... 804
Transformation of internal MOs         ...    0-  32
Transformation of internal/external MOs...    0-  32 to   33- 326
Number Format for Storage              ... Double (8 Byte)
Integral mode                          ... Direct

First Phase: integral generation and transformation of MO indices
  Aux angular momentum 0               ... done (    0.712 sec)
  Aux angular momentum 1               ... done (    0.936 sec)
  Aux angular momentum 2               ... done (    1.008 sec)
  Aux angular momentum 3               ... done (    0.807 sec)
  Aux angular momentum 4               ... done (    0.375 sec)
Closing buffer VIJ ( 0.00 GB; CompressionRatio= 1.94)
Closing buffer VIA ( 0.06 GB; CompressionRatio= 1.00)
  Phase 1 completed in     3.937 sec
Second Phase: sorting and transformation of aux index

IJ-Transformation
Memory available                       ... 1987 MB 
Max. # MO pairs treated in a batch     ... 33    
# of internal orbitals                 ... 33
# batches for internal orbitals        ... 1
Closing buffer IJV ( 0.00 GB; CompressionRatio= 1.00)
(ij|v) transformation done in     0.171 sec

IA-Transformation
Memory available                       ... 1987 MB 
Max. # MO pairs treated in a batch     ... 33    
# of internal orbitals                 ... 33
# batches for internal orbitals        ... 1
Closing buffer IAV ( 0.06 GB; CompressionRatio= 1.00)
(ia|v) transformation done in     1.302 sec

  Phase 2 completed in     1.492 sec
RI-Integral transformation completed in     5.429 sec
Opening buffers                              ... done
Frozen core precalculation                   ... done

Starting loop over batches of integrals:

Operator 0  - window                       ... (  9- 32)x( 33-326)
Operator 0  - Memory available             ...  2000 MB
Operator 0  - Memory needed per MO         ...   3.6 MB
Operator 0  - Number of orbitals per batch ... 24
Operator 0  - Number of batches            ... 1

OPERATOR  0   PASS   0:  MOs     9 ...   32
  Reading integrals       ... ok
  Internal MO  11
  Internal MO  14
  Internal MO  17
  Internal MO  20
  Internal MO  23
  Internal MO  26
  Internal MO  29
  Internal MO  32
Time spent in pair loops =    32.167 sec
Deleting buffer (Ka|jb)[aa] ...done

-----------------------------------------------
 RI-MP2 CORRELATION ENERGY:     -1.564934333 Eh
-----------------------------------------------


---------------------
MP2 DENSITY FORMATION
---------------------

Completing the external part of the density      ... done
Storing the unrelaxed density                    ... done

Calculating G(D)                                 ... done
Completing the Lagrangian                        ... done
Solving the Z-vector equations                   ... 

------------------------------------------------------------------------------
                           ORCA CP-SCF CALCULATION
------------------------------------------------------------------------------

Input orbitals are from        ... dsgdb9nsd_046473.gbw
Input Perturbation             ... dsgdb9nsd_046473.pin.tmp
Wavefunction output            ... dsgdb9nsd_046473.pout.tmp
Perturbation mode              ... Real perturbation
Solver                         ... POPLE
Max. number of iterations      ... 128
Convergence tolerance          ... 1.000e-08
Integral handling              ... Direct
Number of perturbations        ... 1
Number of operators            ... 1
Orbital ranges used for CP-SCF:
 Operator 0:  Orbitals   0... 32  to  33...326
Variables per vector in CP-SCF ... 9702
Number of vectors sought       ... 1
     CP-SCF ITERATION   0: 
     CP-SCF ITERATION   1:      0.002480901
     CP-SCF ITERATION   2:      0.000416084
     CP-SCF ITERATION   3:      0.000023736
     CP-SCF ITERATION   4:      0.000002684
     CP-SCF ITERATION   5:      0.000000826
     CP-SCF ITERATION   6:      0.000000257
     CP-SCF ITERATION   7:      0.000000034
     CP-SCF ITERATION   8:      0.000000004
done
Finalizing the relaxed density                   ... done
Transforming P to the AO basis                   ... done
Storing the relaxed density                      ... done

                *********************************************
                * UNRELAXED MP2 DENSITY POPULATION ANALYSIS *
                *********************************************

------------------------------------------------------------------------------
                           ORCA POPULATION ANALYSIS
------------------------------------------------------------------------------
Input electron density              ... dsgdb9nsd_046473.pmp2ur
BaseName (.gbw .S,...)              ... dsgdb9nsd_046473

                    ********************************
                    * MULLIKEN POPULATION ANALYSIS *
                    ********************************

-----------------------
MULLIKEN ATOMIC CHARGES
-----------------------
   0 O :   -0.344169
   1 C :    0.234215
   2 C :   -0.190299
   3 C :   -0.165735
   4 C :    0.104511
   5 C :   -0.238585
   6 C :   -0.264821
   7 C :    0.220651
   8 O :   -0.388501
   9 H :    0.138799
  10 H :    0.127613
  11 H :    0.111033
  12 H :    0.113199
  13 H :    0.147105
  14 H :    0.128535
  15 H :    0.123625
  16 H :    0.142823
Sum of atomic charges:    0.0000000

--------------------------------
MULLIKEN REDUCED ORBITAL CHARGES
--------------------------------
  0 O s       :     3.829334  s :     3.829334
      pz      :     1.281204  p :     4.446903
      px      :     1.815326
      py      :     1.350372
      dz2     :     0.008396  d :     0.063136
      dxz     :     0.005619
      dyz     :     0.018786
      dx2y2   :     0.016241
      dxy     :     0.014093
      f0      :     0.000509  f :     0.004796
      f+1     :     0.000339
      f-1     :     0.000619
      f+2     :     0.000923
      f-2     :     0.000409
      f+3     :     0.000984
      f-3     :     0.001013
  1 C s       :     3.153144  s :     3.153144
      pz      :     0.674761  p :     2.370750
      px      :     0.937359
      py      :     0.758629
      dz2     :     0.010705  d :     0.219717
      dxz     :     0.016242
      dyz     :     0.048691
      dx2y2   :     0.031676
      dxy     :     0.112402
      f0      :     0.002251  f :     0.022175
      f+1     :     0.001183
      f-1     :     0.002074
      f+2     :     0.003149
      f-2     :     0.001700
      f+3     :     0.007720
      f-3     :     0.004098
  2 C s       :     3.123959  s :     3.123959
      pz      :     1.031475  p :     2.941747
      px      :     0.963801
      py      :     0.946471
      dz2     :     0.026698  d :     0.114609
      dxz     :     0.015667
      dyz     :     0.018234
      dx2y2   :     0.022641
      dxy     :     0.031369
      f0      :     0.001467  f :     0.009985
      f+1     :     0.001006
      f-1     :     0.001407
      f+2     :     0.000927
      f-2     :     0.001505
      f+3     :     0.001509
      f-3     :     0.002163
  3 C s       :     3.140631  s :     3.140631
      pz      :     1.008135  p :     2.885762
      px      :     0.890896
      py      :     0.986731
      dz2     :     0.029663  d :     0.128803
      dxz     :     0.023955
      dyz     :     0.017875
      dx2y2   :     0.026132
      dxy     :     0.031178
      f0      :     0.001852  f :     0.010538
      f+1     :     0.001155
      f-1     :     0.001193
      f+2     :     0.001564
      f-2     :     0.001077
      f+3     :     0.001976
      f-3     :     0.001721
  4 C s       :     3.024530  s :     3.024530
      pz      :     1.057149  p :     2.694428
      px      :     0.831717
      py      :     0.805562
      dz2     :     0.026086  d :     0.160042
      dxz     :     0.029466
      dyz     :     0.024545
      dx2y2   :     0.042334
      dxy     :     0.037612
      f0      :     0.001688  f :     0.016489
      f+1     :     0.002030
      f-1     :     0.002211
      f+2     :     0.002268
      f-2     :     0.001935
      f+3     :     0.003063
      f-3     :     0.003294
  5 C s       :     3.230736  s :     3.230736
      pz      :     0.909327  p :     2.890467
      px      :     0.994093
      py      :     0.987047
      dz2     :     0.022320  d :     0.105359
      dxz     :     0.020298
      dyz     :     0.024681
      dx2y2   :     0.017394
      dxy     :     0.020667
      f0      :     0.001958  f :     0.012023
      f+1     :     0.002208
      f-1     :     0.002185
      f+2     :     0.001229
      f-2     :     0.001875
      f+3     :     0.001131
      f-3     :     0.001436
  6 C s       :     3.241901  s :     3.241901
      pz      :     0.923745  p :     2.902107
      px      :     1.027835
      py      :     0.950527
      dz2     :     0.022929  d :     0.108827
      dxz     :     0.025624
      dyz     :     0.021403
      dx2y2   :     0.014497
      dxy     :     0.024374
      f0      :     0.002028  f :     0.011985
      f+1     :     0.001923
      f-1     :     0.002487
      f+2     :     0.001509
      f-2     :     0.001654
      f+3     :     0.001216
      f-3     :     0.001167
  7 C s       :     3.163741  s :     3.163741
      pz      :     0.681953  p :     2.354127
      px      :     0.772519
      py      :     0.899655
      dz2     :     0.012110  d :     0.238676
      dxz     :     0.047692
      dyz     :     0.024430
      dx2y2   :     0.056874
      dxy     :     0.097570
      f0      :     0.002428  f :     0.022805
      f+1     :     0.001870
      f-1     :     0.001399
      f+2     :     0.003071
      f-2     :     0.002132
      f+3     :     0.006253
      f-3     :     0.005651
  8 O s       :     3.837277  s :     3.837277
      pz      :     1.335613  p :     4.483085
      px      :     1.391090
      py      :     1.756382
      dz2     :     0.008407  d :     0.063354
      dxz     :     0.017250
      dyz     :     0.006724
      dx2y2   :     0.015874
      dxy     :     0.015099
      f0      :     0.000535  f :     0.004784
      f+1     :     0.000592
      f-1     :     0.000366
      f+2     :     0.000747
      f-2     :     0.000548
      f+3     :     0.000991
      f-3     :     0.001005
  9 H s       :     0.835530  s :     0.835530
      pz      :     0.006469  p :     0.025671
      px      :     0.012004
      py      :     0.007198
 10 H s       :     0.846660  s :     0.846660
      pz      :     0.014667  p :     0.025727
      px      :     0.005873
      py      :     0.005187
 11 H s       :     0.863615  s :     0.863615
      pz      :     0.015594  p :     0.025351
      px      :     0.005043
      py      :     0.004715
 12 H s       :     0.861440  s :     0.861440
      pz      :     0.005567  p :     0.025360
      px      :     0.007710
      py      :     0.012083
 13 H s       :     0.826561  s :     0.826561
      pz      :     0.005273  p :     0.026334
      px      :     0.014690
      py      :     0.006371
 14 H s       :     0.845350  s :     0.845350
      pz      :     0.009802  p :     0.026115
      px      :     0.006183
      py      :     0.010130
 15 H s       :     0.850140  s :     0.850140
      pz      :     0.005666  p :     0.026235
      px      :     0.008838
      py      :     0.011731
 16 H s       :     0.830856  s :     0.830856
      pz      :     0.009830  p :     0.026321
      px      :     0.011192
      py      :     0.005299


                     *******************************
                     * LOEWDIN POPULATION ANALYSIS *
                     *******************************

----------------------
LOEWDIN ATOMIC CHARGES
----------------------
   0 O :    0.139655
   1 C :   -0.239803
   2 C :   -0.191433
   3 C :   -0.183027
   4 C :   -0.206687
   5 C :   -0.165763
   6 C :   -0.160137
   7 C :   -0.218313
   8 O :    0.126818
   9 H :    0.141775
  10 H :    0.151128
  11 H :    0.135754
  12 H :    0.132537
  13 H :    0.140405
  14 H :    0.131252
  15 H :    0.128821
  16 H :    0.137017

-------------------------------
LOEWDIN REDUCED ORBITAL CHARGES
-------------------------------
  0 O s       :     3.395475  s :     3.395475
      pz      :     1.214564  p :     4.356027
      px      :     1.648934
      py      :     1.492529
      dz2     :     0.013010  d :     0.099628
      dxz     :     0.005820
      dyz     :     0.020835
      dx2y2   :     0.031633
      dxy     :     0.028330
      f0      :     0.000775  f :     0.009215
      f+1     :     0.000451
      f-1     :     0.001343
      f+2     :     0.001290
      f-2     :     0.000494
      f+3     :     0.002519
      f-3     :     0.002343
  1 C s       :     2.762470  s :     2.762470
      pz      :     0.650670  p :     2.602551
      px      :     0.978044
      py      :     0.973837
      dz2     :     0.056555  d :     0.760976
      dxz     :     0.051534
      dyz     :     0.128621
      dx2y2   :     0.186004
      dxy     :     0.338261
      f0      :     0.008208  f :     0.113806
      f+1     :     0.003999
      f-1     :     0.011484
      f+2     :     0.015972
      f-2     :     0.007134
      f+3     :     0.047078
      f-3     :     0.019932
  2 C s       :     2.772407  s :     2.772407
      pz      :     1.012572  p :     2.991733
      px      :     0.987491
      py      :     0.991670
      dz2     :     0.085934  d :     0.384724
      dxz     :     0.049787
      dyz     :     0.060310
      dx2y2   :     0.077544
      dxy     :     0.111148
      f0      :     0.004884  f :     0.042570
      f+1     :     0.003655
      f-1     :     0.006345
      f+2     :     0.004156
      f-2     :     0.006088
      f+3     :     0.007465
      f-3     :     0.009977
  3 C s       :     2.762191  s :     2.762191
      pz      :     1.008465  p :     2.959094
      px      :     0.964358
      py      :     0.986271
      dz2     :     0.105281  d :     0.416868
      dxz     :     0.071516
      dyz     :     0.050003
      dx2y2   :     0.088656
      dxy     :     0.101412
      f0      :     0.006180  f :     0.044874
      f+1     :     0.004330
      f-1     :     0.004514
      f+2     :     0.008276
      f-2     :     0.005821
      f+3     :     0.008296
      f-3     :     0.007457
  4 C s       :     2.665893  s :     2.665893
      pz      :     0.979525  p :     2.862609
      px      :     0.954755
      py      :     0.928328
      dz2     :     0.096327  d :     0.604015
      dxz     :     0.098725
      dyz     :     0.089769
      dx2y2   :     0.168714
      dxy     :     0.150480
      f0      :     0.004991  f :     0.074170
      f+1     :     0.008414
      f-1     :     0.010724
      f+2     :     0.011121
      f-2     :     0.008552
      f+3     :     0.014171
      f-3     :     0.016198
  5 C s       :     2.763153  s :     2.763153
      pz      :     0.989485  p :     2.963506
      px      :     0.992197
      py      :     0.981825
      dz2     :     0.080522  d :     0.390459
      dxz     :     0.091125
      dyz     :     0.099839
      dx2y2   :     0.060622
      dxy     :     0.058352
      f0      :     0.008023  f :     0.048645
      f+1     :     0.011109
      f-1     :     0.009845
      f+2     :     0.003475
      f-2     :     0.006761
      f+3     :     0.003730
      f-3     :     0.005701
  6 C s       :     2.768196  s :     2.768196
      pz      :     0.995149  p :     2.957084
      px      :     1.005065
      py      :     0.956871
      dz2     :     0.082119  d :     0.387339
      dxz     :     0.103327
      dyz     :     0.090499
      dx2y2   :     0.044298
      dxy     :     0.067095
      f0      :     0.007985  f :     0.047518
      f+1     :     0.007518
      f-1     :     0.013698
      f+2     :     0.005515
      f-2     :     0.004340
      f+3     :     0.003675
      f-3     :     0.004786
  7 C s       :     2.746445  s :     2.746445
      pz      :     0.659454  p :     2.584737
      px      :     0.968407
      py      :     0.956875
      dz2     :     0.061592  d :     0.771878
      dxz     :     0.120618
      dyz     :     0.075034
      dx2y2   :     0.220197
      dxy     :     0.294437
      f0      :     0.008490  f :     0.115253
      f+1     :     0.010729
      f-1     :     0.005171
      f+2     :     0.015440
      f-2     :     0.009503
      f+3     :     0.035369
      f-3     :     0.030551
  8 O s       :     3.392762  s :     3.392762
      pz      :     1.257815  p :     4.372336
      px      :     1.505011
      py      :     1.609510
      dz2     :     0.013179  d :     0.098979
      dxz     :     0.019111
      dyz     :     0.007126
      dx2y2   :     0.030687
      dxy     :     0.028876
      f0      :     0.000786  f :     0.009105
      f+1     :     0.001298
      f-1     :     0.000524
      f+2     :     0.000971
      f-2     :     0.000715
      f+3     :     0.002455
      f-3     :     0.002356
  9 H s       :     0.793000  s :     0.793000
      pz      :     0.017941  p :     0.065225
      px      :     0.028639
      py      :     0.018645
 10 H s       :     0.784301  s :     0.784301
      pz      :     0.035259  p :     0.064572
      px      :     0.014968
      py      :     0.014345
 11 H s       :     0.800654  s :     0.800654
      pz      :     0.036781  p :     0.063592
      px      :     0.013381
      py      :     0.013430
 12 H s       :     0.803498  s :     0.803498
      pz      :     0.016050  p :     0.063965
      px      :     0.018887
      py      :     0.029029
 13 H s       :     0.791873  s :     0.791873
      pz      :     0.013644  p :     0.067722
      px      :     0.036447
      py      :     0.017631
 14 H s       :     0.802276  s :     0.802276
      pz      :     0.023294  p :     0.066472
      px      :     0.017776
      py      :     0.025403
 15 H s       :     0.804506  s :     0.804506
      pz      :     0.014382  p :     0.066673
      px      :     0.023861
      py      :     0.028429
 16 H s       :     0.795242  s :     0.795242
      pz      :     0.023696  p :     0.067741
      px      :     0.029216
      py      :     0.014829


                      *****************************
                      * MAYER POPULATION ANALYSIS *
                      *****************************

  NA   - Mulliken gross atomic population
  ZA   - Total nuclear charge
  QA   - Mulliken gross atomic charge
  VA   - Mayer's total valence
  BVA  - Mayer's bonded valence
  FA   - Mayer's free valence

  ATOM       NA         ZA         QA         VA         BVA        FA
  0 O      8.3442     8.0000    -0.3442     2.3497     1.8916     0.4581
  1 C      5.7658     6.0000     0.2342     4.0232     3.6567     0.3665
  2 C      6.1903     6.0000    -0.1903     3.9535     3.6325     0.3210
  3 C      6.1657     6.0000    -0.1657     3.9234     3.6037     0.3198
  4 C      5.8955     6.0000     0.1045     3.5905     3.2229     0.3676
  5 C      6.2386     6.0000    -0.2386     4.0243     3.6930     0.3313
  6 C      6.2648     6.0000    -0.2648     4.0854     3.7464     0.3390
  7 C      5.7793     6.0000     0.2207     3.9766     3.6105     0.3661
  8 O      8.3885     8.0000    -0.3885     2.3352     1.8694     0.4658
  9 H      0.8612     1.0000     0.1388     0.9934     0.9441     0.0493
 10 H      0.8724     1.0000     0.1276     0.9911     0.9403     0.0508
 11 H      0.8890     1.0000     0.1110     0.9811     0.9304     0.0507
 12 H      0.8868     1.0000     0.1132     0.9797     0.9291     0.0506
 13 H      0.8529     1.0000     0.1471     0.9868     0.9384     0.0485
 14 H      0.8715     1.0000     0.1285     0.9798     0.9308     0.0490
 15 H      0.8764     1.0000     0.1236     0.9786     0.9293     0.0493
 16 H      0.8572     1.0000     0.1428     0.9842     0.9355     0.0487

  Mayer bond orders larger than 0.1
B(  0-O ,  1-C ) :   1.9039 B(  1-C ,  2-C ) :   0.9346 B(  1-C ,  7-C ) :   0.8811 
B(  2-C ,  3-C ) :   0.9114 B(  2-C ,  9-H ) :   0.9295 B(  2-C , 10-H ) :   0.9247 
B(  3-C ,  4-C ) :   0.8605 B(  3-C , 11-H ) :   0.9392 B(  3-C , 12-H ) :   0.9354 
B(  4-C ,  5-C ) :   0.8006 B(  4-C ,  6-C ) :   0.8045 B(  4-C ,  7-C ) :   0.9005 
B(  5-C ,  6-C ) :   0.9876 B(  5-C , 13-H ) :   0.9265 B(  5-C , 14-H ) :   0.9401 
B(  6-C , 15-H ) :   0.9374 B(  6-C , 16-H ) :   0.9283 B(  7-C ,  8-O ) :   1.8325 



                *******************************************
                * RELAXED MP2 DENSITY POPULATION ANALYSIS *
                *******************************************

------------------------------------------------------------------------------
                           ORCA POPULATION ANALYSIS
------------------------------------------------------------------------------
Input electron density              ... dsgdb9nsd_046473.pmp2re
BaseName (.gbw .S,...)              ... dsgdb9nsd_046473

                    ********************************
                    * MULLIKEN POPULATION ANALYSIS *
                    ********************************

-----------------------
MULLIKEN ATOMIC CHARGES
-----------------------
   0 O :   -0.229390
   1 C :    0.146934
   2 C :   -0.231520
   3 C :   -0.222769
   4 C :    0.075778
   5 C :   -0.262727
   6 C :   -0.285963
   7 C :    0.134032
   8 O :   -0.268055
   9 H :    0.150550
  10 H :    0.143329
  11 H :    0.131112
  12 H :    0.129752
  13 H :    0.155073
  14 H :    0.142019
  15 H :    0.138422
  16 H :    0.153424
Sum of atomic charges:    0.0000000

--------------------------------
MULLIKEN REDUCED ORBITAL CHARGES
--------------------------------
  0 O s       :     3.806606  s :     3.806606
      pz      :     1.246444  p :     4.358330
      px      :     1.761660
      py      :     1.350226
      dz2     :     0.008114  d :     0.059810
      dxz     :     0.005635
      dyz     :     0.016730
      dx2y2   :     0.014520
      dxy     :     0.014811
      f0      :     0.000474  f :     0.004644
      f+1     :     0.000339
      f-1     :     0.000576
      f+2     :     0.000893
      f-2     :     0.000410
      f+3     :     0.001014
      f-3     :     0.000939
  1 C s       :     3.163773  s :     3.163773
      pz      :     0.729480  p :     2.462108
      px      :     0.959987
      py      :     0.772642
      dz2     :     0.011414  d :     0.206526
      dxz     :     0.017274
      dyz     :     0.039701
      dx2y2   :     0.035391
      dxy     :     0.102747
      f0      :     0.002048  f :     0.020659
      f+1     :     0.001069
      f-1     :     0.002031
      f+2     :     0.002805
      f-2     :     0.001676
      f+3     :     0.007325
      f-3     :     0.003707
  2 C s       :     3.141306  s :     3.141306
      pz      :     1.036790  p :     2.977498
      px      :     0.989015
      py      :     0.951693
      dz2     :     0.023618  d :     0.103227
      dxz     :     0.014650
      dyz     :     0.016379
      dx2y2   :     0.022097
      dxy     :     0.026483
      f0      :     0.001385  f :     0.009488
      f+1     :     0.000947
      f-1     :     0.001374
      f+2     :     0.000881
      f-2     :     0.001461
      f+3     :     0.001492
      f-3     :     0.001947
  3 C s       :     3.169497  s :     3.169497
      pz      :     1.027931  p :     2.925502
      px      :     0.900520
      py      :     0.997050
      dz2     :     0.026238  d :     0.117744
      dxz     :     0.023641
      dyz     :     0.015370
      dx2y2   :     0.022417
      dxy     :     0.030078
      f0      :     0.001715  f :     0.010026
      f+1     :     0.001105
      f-1     :     0.001201
      f+2     :     0.001479
      f-2     :     0.001032
      f+3     :     0.001790
      f-3     :     0.001704
  4 C s       :     3.080974  s :     3.080974
      pz      :     1.019121  p :     2.677226
      px      :     0.840579
      py      :     0.817526
      dz2     :     0.025364  d :     0.150204
      dxz     :     0.028175
      dyz     :     0.022441
      dx2y2   :     0.037440
      dxy     :     0.036785
      f0      :     0.001635  f :     0.015817
      f+1     :     0.001922
      f-1     :     0.002121
      f+2     :     0.002250
      f-2     :     0.001821
      f+3     :     0.002726
      f-3     :     0.003342
  5 C s       :     3.243656  s :     3.243656
      pz      :     0.908847  p :     2.914803
      px      :     1.000683
      py      :     1.005273
      dz2     :     0.018842  d :     0.092820
      dxz     :     0.019348
      dyz     :     0.021627
      dx2y2   :     0.016559
      dxy     :     0.016444
      f0      :     0.001819  f :     0.011448
      f+1     :     0.002127
      f-1     :     0.002088
      f+2     :     0.001252
      f-2     :     0.001731
      f+3     :     0.001065
      f-3     :     0.001366
  6 C s       :     3.252060  s :     3.252060
      pz      :     0.920587  p :     2.926216
      px      :     1.040252
      py      :     0.965377
      dz2     :     0.019891  d :     0.096254
      dxz     :     0.022429
      dyz     :     0.020414
      dx2y2   :     0.014025
      dxy     :     0.019495
      f0      :     0.001887  f :     0.011434
      f+1     :     0.001848
      f-1     :     0.002418
      f+2     :     0.001473
      f-2     :     0.001564
      f+3     :     0.001107
      f-3     :     0.001137
  7 C s       :     3.154330  s :     3.154330
      pz      :     0.753245  p :     2.468773
      px      :     0.794070
      py      :     0.921458
      dz2     :     0.012827  d :     0.221604
      dxz     :     0.039104
      dyz     :     0.024200
      dx2y2   :     0.055669
      dxy     :     0.089804
      f0      :     0.002203  f :     0.021261
      f+1     :     0.001856
      f-1     :     0.001324
      f+2     :     0.002755
      f-2     :     0.001994
      f+3     :     0.005897
      f-3     :     0.005233
  8 O s       :     3.814045  s :     3.814045
      pz      :     1.292194  p :     4.389204
      px      :     1.388037
      py      :     1.708974
      dz2     :     0.008125  d :     0.060170
      dxz     :     0.015588
      dyz     :     0.006638
      dx2y2   :     0.014929
      dxy     :     0.014890
      f0      :     0.000505  f :     0.004636
      f+1     :     0.000555
      f-1     :     0.000361
      f+2     :     0.000726
      f-2     :     0.000545
      f+3     :     0.000979
      f-3     :     0.000966
  9 H s       :     0.824865  s :     0.824865
      pz      :     0.006381  p :     0.024585
      px      :     0.011167
      py      :     0.007037
 10 H s       :     0.832002  s :     0.832002
      pz      :     0.013270  p :     0.024669
      px      :     0.005992
      py      :     0.005407
 11 H s       :     0.844666  s :     0.844666
      pz      :     0.014061  p :     0.024222
      px      :     0.005207
      py      :     0.004954
 12 H s       :     0.845942  s :     0.845942
      pz      :     0.005660  p :     0.024306
      px      :     0.007521
      py      :     0.011124
 13 H s       :     0.819682  s :     0.819682
      pz      :     0.005382  p :     0.025246
      px      :     0.013459
      py      :     0.006405
 14 H s       :     0.832860  s :     0.832860
      pz      :     0.009287  p :     0.025122
      px      :     0.006135
      py      :     0.009700
 15 H s       :     0.836393  s :     0.836393
      pz      :     0.005713  p :     0.025185
      px      :     0.008439
      py      :     0.011033
 16 H s       :     0.821384  s :     0.821384
      pz      :     0.009280  p :     0.025192
      px      :     0.010505
      py      :     0.005407


                     *******************************
                     * LOEWDIN POPULATION ANALYSIS *
                     *******************************

----------------------
LOEWDIN ATOMIC CHARGES
----------------------
   0 O :    0.192088
   1 C :   -0.280177
   2 C :   -0.215056
   3 C :   -0.200144
   4 C :   -0.213861
   5 C :   -0.184115
   6 C :   -0.176548
   7 C :   -0.263927
   8 O :    0.183008
   9 H :    0.148211
  10 H :    0.159788
  11 H :    0.144776
  12 H :    0.140268
  13 H :    0.146132
  14 H :    0.139528
  15 H :    0.136886
  16 H :    0.143141

-------------------------------
LOEWDIN REDUCED ORBITAL CHARGES
-------------------------------
  0 O s       :     3.397387  s :     3.397387
      pz      :     1.189650  p :     4.301731
      px      :     1.619199
      py      :     1.492882
      dz2     :     0.013062  d :     0.099464
      dxz     :     0.005838
      dyz     :     0.020494
      dx2y2   :     0.030726
      dxy     :     0.029345
      f0      :     0.000799  f :     0.009330
      f+1     :     0.000450
      f-1     :     0.001357
      f+2     :     0.001357
      f-2     :     0.000496
      f+3     :     0.002539
      f-3     :     0.002332
  1 C s       :     2.769556  s :     2.769556
      pz      :     0.693553  p :     2.642938
      px      :     0.981773
      py      :     0.967612
      dz2     :     0.057293  d :     0.758625
      dxz     :     0.053637
      dyz     :     0.117970
      dx2y2   :     0.188156
      dxy     :     0.341569
      f0      :     0.007657  f :     0.109058
      f+1     :     0.003801
      f-1     :     0.011614
      f+2     :     0.015366
      f-2     :     0.007058
      f+3     :     0.043947
      f-3     :     0.019615
  2 C s       :     2.779266  s :     2.779266
      pz      :     1.019284  p :     3.017323
      px      :     0.998699
      py      :     0.999340
      dz2     :     0.082435  d :     0.376022
      dxz     :     0.049961
      dyz     :     0.059138
      dx2y2   :     0.077812
      dxy     :     0.106676
      f0      :     0.004869  f :     0.042445
      f+1     :     0.003564
      f-1     :     0.006317
      f+2     :     0.004208
      f-2     :     0.006228
      f+3     :     0.007573
      f-3     :     0.009685
  3 C s       :     2.768018  s :     2.768018
      pz      :     1.020027  p :     2.980960
      px      :     0.967368
      py      :     0.993565
      dz2     :     0.100696  d :     0.406728
      dxz     :     0.071113
      dyz     :     0.047683
      dx2y2   :     0.086221
      dxy     :     0.101015
      f0      :     0.005903  f :     0.044438
      f+1     :     0.004283
      f-1     :     0.004530
      f+2     :     0.008254
      f-2     :     0.005767
      f+3     :     0.008143
      f-3     :     0.007558
  4 C s       :     2.673819  s :     2.673819
      pz      :     0.970333  p :     2.860224
      px      :     0.955468
      py      :     0.934423
      dz2     :     0.095786  d :     0.605638
      dxz     :     0.099749
      dyz     :     0.091019
      dx2y2   :     0.167764
      dxy     :     0.151318
      f0      :     0.005134  f :     0.074180
      f+1     :     0.008227
      f-1     :     0.010507
      f+2     :     0.011439
      f-2     :     0.008776
      f+3     :     0.013619
      f-3     :     0.016478
  5 C s       :     2.769510  s :     2.769510
      pz      :     0.994042  p :     2.985877
      px      :     1.000181
      py      :     0.991655
      dz2     :     0.077432  d :     0.380754
      dxz     :     0.090225
      dyz     :     0.096986
      dx2y2   :     0.061785
      dxy     :     0.054325
      f0      :     0.008081  f :     0.047974
      f+1     :     0.010825
      f-1     :     0.009535
      f+2     :     0.003549
      f-2     :     0.006583
      f+3     :     0.003688
      f-3     :     0.005713
  6 C s       :     2.774602  s :     2.774602
      pz      :     0.997997  p :     2.976704
      px      :     1.014189
      py      :     0.964518
      dz2     :     0.079575  d :     0.378360
      dxz     :     0.101327
      dyz     :     0.089635
      dx2y2   :     0.045596
      dxy     :     0.062226
      f0      :     0.008025  f :     0.046882
      f+1     :     0.007445
      f-1     :     0.013226
      f+2     :     0.005481
      f-2     :     0.004314
      f+3     :     0.003556
      f-3     :     0.004834
  7 C s       :     2.752724  s :     2.752724
      pz      :     0.712099  p :     2.634226
      px      :     0.963678
      py      :     0.958449
      dz2     :     0.062519  d :     0.766898
      dxz     :     0.111270
      dyz     :     0.074322
      dx2y2   :     0.223186
      dxy     :     0.295601
      f0      :     0.007767  f :     0.110080
      f+1     :     0.010865
      f-1     :     0.004940
      f+2     :     0.014927
      f-2     :     0.009127
      f+3     :     0.033330
      f-3     :     0.029123
  8 O s       :     3.394953  s :     3.394953
      pz      :     1.227071  p :     4.313532
      px      :     1.504447
      py      :     1.582014
      dz2     :     0.013180  d :     0.099270
      dxz     :     0.019279
      dyz     :     0.007220
      dx2y2   :     0.030506
      dxy     :     0.029086
      f0      :     0.000826  f :     0.009237
      f+1     :     0.001298
      f-1     :     0.000526
      f+2     :     0.001031
      f-2     :     0.000745
      f+3     :     0.002464
      f-3     :     0.002347
  9 H s       :     0.785660  s :     0.785660
      pz      :     0.018284  p :     0.066128
      px      :     0.028764
      py      :     0.019080
 10 H s       :     0.774637  s :     0.774637
      pz      :     0.034927  p :     0.065575
      px      :     0.015586
      py      :     0.015061
 11 H s       :     0.790618  s :     0.790618
      pz      :     0.036600  p :     0.064606
      px      :     0.013967
      py      :     0.014039
 12 H s       :     0.794669  s :     0.794669
      pz      :     0.016580  p :     0.065063
      px      :     0.019416
      py      :     0.029067
 13 H s       :     0.785606  s :     0.785606
      pz      :     0.014135  p :     0.068261
      px      :     0.036032
      py      :     0.018094
 14 H s       :     0.793173  s :     0.793173
      pz      :     0.023438  p :     0.067299
      px      :     0.018170
      py      :     0.025690
 15 H s       :     0.795692  s :     0.795692
      pz      :     0.014811  p :     0.067422
      px      :     0.024046
      py      :     0.028565
 16 H s       :     0.788680  s :     0.788680
      pz      :     0.023775  p :     0.068178
      px      :     0.029106
      py      :     0.015297


                      *****************************
                      * MAYER POPULATION ANALYSIS *
                      *****************************

  NA   - Mulliken gross atomic population
  ZA   - Total nuclear charge
  QA   - Mulliken gross atomic charge
  VA   - Mayer's total valence
  BVA  - Mayer's bonded valence
  FA   - Mayer's free valence

  ATOM       NA         ZA         QA         VA         BVA        FA
  0 O      8.2294     8.0000    -0.2294     2.4902     2.0477     0.4425
  1 C      5.8531     6.0000     0.1469     4.1148     3.7631     0.3517
  2 C      6.2315     6.0000    -0.2315     3.8924     3.5758     0.3166
  3 C      6.2228     6.0000    -0.2228     3.9455     3.6303     0.3152
  4 C      5.9242     6.0000     0.0758     3.6110     3.2527     0.3583
  5 C      6.2627     6.0000    -0.2627     3.9973     3.6705     0.3269
  6 C      6.2860     6.0000    -0.2860     4.0513     3.7169     0.3344
  7 C      5.8660     6.0000     0.1340     4.0665     3.7178     0.3487
  8 O      8.2681     8.0000    -0.2681     2.4814     2.0324     0.4490
  9 H      0.8495     1.0000     0.1505     0.9880     0.9399     0.0481
 10 H      0.8567     1.0000     0.1433     0.9820     0.9323     0.0497
 11 H      0.8689     1.0000     0.1311     0.9700     0.9202     0.0498
 12 H      0.8702     1.0000     0.1298     0.9707     0.9210     0.0497
 13 H      0.8449     1.0000     0.1551     0.9854     0.9379     0.0475
 14 H      0.8580     1.0000     0.1420     0.9754     0.9272     0.0482
 15 H      0.8616     1.0000     0.1384     0.9746     0.9261     0.0484
 16 H      0.8466     1.0000     0.1534     0.9802     0.9323     0.0478

  Mayer bond orders larger than 0.1
B(  0-O ,  1-C ) :   2.0376 B(  1-C ,  2-C ) :   0.9194 B(  1-C ,  7-C ) :   0.8546 
B(  2-C ,  3-C ) :   0.9185 B(  2-C ,  9-H ) :   0.9136 B(  2-C , 10-H ) :   0.9035 
B(  3-C ,  4-C ) :   0.8761 B(  3-C , 11-H ) :   0.9206 B(  3-C , 12-H ) :   0.9194 
B(  4-C ,  5-C ) :   0.7982 B(  4-C ,  6-C ) :   0.7984 B(  4-C ,  7-C ) :   0.9089 
B(  5-C ,  6-C ) :   0.9645 B(  5-C , 13-H ) :   0.9184 B(  5-C , 14-H ) :   0.9265 
B(  6-C , 15-H ) :   0.9253 B(  6-C , 16-H ) :   0.9207 B(  7-C ,  8-O ) :   1.9566 



-------
TIMINGS
-------

Total time                :  892.923 sec
Integral trafo            :    5.437 sec (  0.6%)
FC preparation            :    3.083 sec (  0.3%)
I/O of integrals          :    0.046 sec (  0.0%)
K(i,j) Operators          :    7.579 sec (  0.8%)
T(i,j) pair energies      :    0.693 sec (  0.1%)
V-calculation             :    0.016 sec (  0.0%)
V**(-1/2)                 :    0.102 sec (  0.0%)
Gamma(ia|P)               :    7.392 sec (  0.8%)
Gamma-Trafo               :    1.241 sec (  0.1%)
D(virtual)                :    2.819 sec (  0.3%)
D(internal)               :    2.557 sec (  0.3%)
W(virtual)                :    0.000 sec (  0.0%)
W(internal)               :    0.000 sec (  0.0%)
L(virtual)                :    9.435 sec (  1.1%)
L(internal)               :    0.158 sec (  0.0%)
G(D)                      :  105.009 sec ( 11.8%)
G(Z)                      :    0.000 sec (  0.0%)
Z-Vector Solution         :  746.726 sec ( 83.6%)
3-Index Derivative        :    0.000 sec (  0.0%)
2-Index Derivative        :    0.000 sec (  0.0%)
Separable Gradient (RIJ)  :    0.000 sec (  0.0%)
Separable Gradient (X)    :    0.000 sec (  0.0%)


---------------------------------------
MP2 TOTAL ENERGY:     -421.140190511 Eh
---------------------------------------

-------------------------   --------------------
FINAL SINGLE POINT ENERGY      -421.140190511273
-------------------------   --------------------


                            ***************************************
                            *     ORCA property calculations      *
                            ***************************************

                                    ---------------------
                                    Active property flags
                                    ---------------------
   (+) Dipole Moment


------------------------------------------------------------------------------
                       ORCA ELECTRIC PROPERTIES CALCULATION
------------------------------------------------------------------------------

Dipole Moment Calculation                       ... on
Quadrupole Moment Calculation                   ... off
Polarizability Calculation                      ... off
GBWName                                         ... dsgdb9nsd_046473.gbw
Electron density file                           ... dsgdb9nsd_046473.scfp.tmp

-------------
DIPOLE MOMENT
-------------
                                X             Y             Z
Electronic contribution:      2.61223      -7.55502       1.11789
Nuclear contribution   :     -3.82063       9.46754      -1.40936
                        -----------------------------------------
Total Dipole Moment    :     -1.20840       1.91252      -0.29147
                        -----------------------------------------
Magnitude (a.u.)       :      2.28099
Magnitude (Debye)      :      5.79782


                         *** MP2 UNRELAXED DENSITY ***

------------------------------------------------------------------------------
                       ORCA ELECTRIC PROPERTIES CALCULATION
------------------------------------------------------------------------------

Dipole Moment Calculation                       ... on
Quadrupole Moment Calculation                   ... off
Polarizability Calculation                      ... off
GBWName                                         ... dsgdb9nsd_046473.gbw
Electron density file                           ... dsgdb9nsd_046473.pmp2ur

-------------
DIPOLE MOMENT
-------------
                                X             Y             Z
Electronic contribution:      2.66216      -7.61987       1.12910
Nuclear contribution   :     -3.82063       9.46754      -1.40936
                        -----------------------------------------
Total Dipole Moment    :     -1.15847       1.84767      -0.28026
                        -----------------------------------------
Magnitude (a.u.)       :      2.19875
Magnitude (Debye)      :      5.58877


                           *** MP2 RELAXED DENSITY ***

------------------------------------------------------------------------------
                       ORCA ELECTRIC PROPERTIES CALCULATION
------------------------------------------------------------------------------

Dipole Moment Calculation                       ... on
Quadrupole Moment Calculation                   ... off
Polarizability Calculation                      ... off
GBWName                                         ... dsgdb9nsd_046473.gbw
Electron density file                           ... dsgdb9nsd_046473.pmp2re

-------------
DIPOLE MOMENT
-------------
                                X             Y             Z
Electronic contribution:      2.79988      -7.83606       1.16829
Nuclear contribution   :     -3.82063       9.46754      -1.40936
                        -----------------------------------------
Total Dipole Moment    :     -1.02075       1.63148      -0.24106
                        -----------------------------------------
Magnitude (a.u.)       :      1.93953
Magnitude (Debye)      :      4.92990


Timings for individual modules:

Sum of individual times         ...     1074.986 sec (=  17.916 min)
GTO integral calculation        ...        0.505 sec (=   0.008 min)   0.0 %
SCF iterations                  ...      181.424 sec (=   3.024 min)  16.9 %
MP2 module                      ...      893.058 sec (=  14.884 min)  83.1 %
                             ****ORCA TERMINATED NORMALLY****
TOTAL RUN TIME: 0 days 0 hours 17 minutes 55 seconds 451 msec
