
                                 *****************
                                 * O   R   C   A *
                                 *****************

           --- An Ab Initio, DFT and Semiempirical electronic structure package ---

                  #######################################################
                  #                        -***-                        #
                  #  Department of molecular theory and spectroscopy    #
                  #              Directorship: Frank Neese              #
                  # Max Planck Institute for Chemical Energy Conversion #
                  #                  D-45470 Muelheim/Ruhr              #
                  #                       Germany                       #
                  #                                                     #
                  #                  All rights reserved                #
                  #                        -***-                        #
                  #######################################################


                         Program Version 3.0.3 - RELEASE   -


 With contributions from (in alphabetic order):
   Ute Becker             : Parallelization
   Dmytro Bykov           : SCF Hessian
   Dmitry Ganyushin       : Spin-Orbit,Spin-Spin,Magnetic field MRCI
   Andreas Hansen         : Spin unrestricted coupled pair/coupled cluster methods
   Dimitrios Liakos       : Extrapolation schemes; parallel MDCI
   Robert Izsak           : Overlap fitted RIJCOSX, COSX-SCS-MP3
   Christian Kollmar      : KDIIS, OOCD, Brueckner-CCSD(T), CCSD density
   Simone Kossmann        : Meta GGA functionals, TD-DFT gradient, OOMP2, MP2 Hessian
   Taras Petrenko         : DFT Hessian,TD-DFT gradient, ASA and ECA modules, normal mode analysis, Resonance Raman, ABS, FL, XAS/XES, NRVS
   Christoph Reimann      : Effective Core Potentials
   Michael Roemelt        : Restricted open shell CIS
   Christoph Riplinger    : Improved optimizer, TS searches, QM/MM, DLPNO-CCSD
   Barbara Sandhoefer     : DKH picture change effects
   Igor Schapiro          : Molecular dynamics
   Kantharuban Sivalingam : CASSCF convergence, NEVPT2
   Boris Wezisla          : Elementary symmetry handling
   Frank Wennmohs         : Technical directorship


 We gratefully acknowledge several colleagues who have allowed us to
 interface, adapt or use parts of their codes:
   Stefan Grimme, W. Hujo, H. Kruse, T. Risthaus : VdW corrections, initial TS optimization,
                                                   DFT functionals, gCP
   Ed Valeev                                     : LibInt (2-el integral package), F12 methods
   Garnet Chan, S. Sharma, R. Olivares           : DMRG
   Ulf Ekstrom                                   : XCFun DFT Library
   Mihaly Kallay                                 : mrcc  (arbitrary order and MRCC methods)
   Andreas Klamt, Michael Diedenhofen            : otool_cosmo (COSMO solvation model)
   Frank Weinhold                                : gennbo (NPA and NBO analysis)
   Christopher J. Cramer and Donald G. Truhlar   : smd solvation model


 Your calculation uses the libint2 library for the computation of 2-el integrals
 For citations please refer to: http://libint.valeyev.net

 This ORCA versions uses:
   CBLAS   interface :  Fast vector & matrix operations
   LAPACKE interface :  Fast linear algebra routines
   SCALAPACK package :  Parallel linear algebra routines


Your calculation utilizes the basis: Ahlrichs-TZV
Cite in your paper:
H - Kr: A. Schaefer, H. Horn and R. Ahlrichs, J. Chem. Phys. 97, 2571 (1992).

The def2-TZV basis will be loaded
Cite in your paper:
 	F. Weigend, R. Ahlrichs, Phys. Chem. Chem. Phys. 2005, 7, 3297.

================================================================================
                                        WARNINGS
                       Please study these warnings very carefully!
================================================================================
Now building the actual basis set


INFO   : the flag for use of LIBINT has been found!

================================================================================
                                       INPUT FILE
================================================================================
NAME = dsgdb9nsd_009066.inp
|  1> ! RI-MP2 RIJK def2-TZVP def2-TZVP/C def2-TZVP/JK TIGHTSCF
|  2> % maxcore 2000
|  3> % mp2 density relaxed end
|  4> *xyz 0 1
|  5>  C       -0.1241351103     1.4189340636     0.0386479319 
|  6>  N        0.0017608503    -0.0271704880    -0.0365674953 
|  7>  C       -0.0129035709    -0.8021664929     1.1867989628 
|  8>  C       -1.4228690794    -0.9340285380     1.8137099335 
|  9>  C       -1.3949961573    -1.7075572545     3.0469641381 
| 10>  C       -1.3272555709    -2.3526300268     4.0587097422 
| 11>  C        0.1531194157    -0.6297541830    -1.2534781635 
| 12>  O        0.1699737666    -0.0635184761    -2.3252380614 
| 13>  H        0.6505214233     1.8378546419     0.6916801686 
| 14>  H       -0.0052545384     1.8129762230    -0.9706773138 
| 15>  H       -1.1039625676     1.7218627144     0.4251114567 
| 16>  H        0.3726330956    -1.8025980968     0.9699815756 
| 17>  H        0.6651075256    -0.3470922896     1.9186021365 
| 18>  H       -1.8341932837     0.0629207095     2.0119607467 
| 19>  H       -2.0917532030    -1.4064731100     1.0840382486 
| 20>  H       -1.2867958962    -2.9207186730     4.9549518478 
| 21>  H        0.2671514506    -1.7271553838    -1.1517231952 
| 22> *
| 23> 
| 24>                          ****END OF INPUT****
================================================================================

                       ****************************
                       * Single Point Calculation *
                       ****************************

---------------------------------
CARTESIAN COORDINATES (ANGSTROEM)
---------------------------------
  C     -0.124135    1.418934    0.038648
  N      0.001761   -0.027170   -0.036567
  C     -0.012904   -0.802166    1.186799
  C     -1.422869   -0.934029    1.813710
  C     -1.394996   -1.707557    3.046964
  C     -1.327256   -2.352630    4.058710
  C      0.153119   -0.629754   -1.253478
  O      0.169974   -0.063518   -2.325238
  H      0.650521    1.837855    0.691680
  H     -0.005255    1.812976   -0.970677
  H     -1.103963    1.721863    0.425111
  H      0.372633   -1.802598    0.969982
  H      0.665108   -0.347092    1.918602
  H     -1.834193    0.062921    2.011961
  H     -2.091753   -1.406473    1.084038
  H     -1.286796   -2.920719    4.954952
  H      0.267151   -1.727155   -1.151723

----------------------------
CARTESIAN COORDINATES (A.U.)
----------------------------
  NO LB      ZA    FRAG    MASS        X           Y           Z
   0 C     6.0000    0    12.011         -0.234581362071107          2.681396782295999          0.073034006933439
   1 N     7.0000    0    14.007          0.003327524829833         -0.051344781244994         -0.069102551520453
   2 C     6.0000    0    12.011         -0.024384215150636         -1.515874985389086          2.242725015713795
   3 C     6.0000    0    12.011         -2.688832884490652         -1.765058138086859          3.427415060687526
   4 C     6.0000    0    12.011         -2.636160695169531         -3.226815568995472          5.757927760888411
   5 C     6.0000    0    12.011         -2.508149538722301         -4.445826445091814          7.669849869836125
   6 C     6.0000    0    12.011          0.289353761459042         -1.190062937561326         -2.368730443865566
   7 O     8.0000    0    15.999          0.321203868825051         -0.120032524273022         -4.394063132215968
   8 H     1.0000    0     1.008          1.229307334285659          3.473041947146913          1.307086090918478
   9 H     1.0000    0     1.008         -0.009929638536173          3.426028548780943         -1.834314287492340
  10 H     1.0000    0     1.008         -2.086186914864526          3.253848970426264          0.803344229555323
  11 H     1.0000    0     1.008          0.704174499119296         -3.406416732479670          1.832999532833432
  12 H     1.0000    0     1.008          1.256871072994018         -0.655909370539683          3.625632597941199
  13 H     1.0000    0     1.008         -3.466122982870727          0.118902909107017          3.802054803462705
  14 H     1.0000    0     1.008         -3.952840693422585         -2.657848992624499          2.048535408549643
  15 H     1.0000    0     1.008         -2.431691834071758         -5.519358406199899          9.363501999109056
  16 H     1.0000    0     1.008          0.504843077913792         -3.263850666109650         -2.176441421012727

--------------------------------
INTERNAL COORDINATES (ANGSTROEM)
--------------------------------
 C      0   0   0   0.000000     0.000     0.000
 N      1   0   0   1.453522     0.000     0.000
 C      2   1   0   1.448261   119.196     0.000
 C      3   2   1   1.548679   113.374    74.910
 C      4   3   2   1.456036   111.757   180.558
 C      5   4   3   1.201806   177.824   357.636
 C      2   1   3   1.366341   119.634   181.048
 O      7   2   1   1.212261   125.659   358.514
 H      1   2   3   1.096375   110.473    55.592
 H      1   2   3   1.090018   107.595   175.265
 H      1   2   3   1.095984   111.757   294.780
 H      3   2   1   1.093852   108.567   196.018
 H      3   2   1   1.096507   109.597   312.680
 H      4   3   2   1.096539   109.712   302.461
 H      4   3   2   1.096828   108.820    58.556
 H      6   5   4   1.061891   178.941   182.979
 H      7   2   1   1.107992   111.494   178.248

---------------------------
INTERNAL COORDINATES (A.U.)
---------------------------
 C      0   0   0   0.000000     0.000     0.000
 N      1   0   0   2.746758     0.000     0.000
 C      2   1   0   2.736816   119.196     0.000
 C      3   2   1   2.926580   113.374    74.910
 C      4   3   2   2.751508   111.757   180.558
 C      5   4   3   2.271084   177.824   357.636
 C      2   1   3   2.582011   119.634   181.048
 O      7   2   1   2.290841   125.659   358.514
 H      1   2   3   2.071849   110.473    55.592
 H      1   2   3   2.059836   107.595   175.265
 H      1   2   3   2.071110   111.757   294.780
 H      3   2   1   2.067080   108.567   196.018
 H      3   2   1   2.072098   109.597   312.680
 H      4   3   2   2.072159   109.712   302.461
 H      4   3   2   2.072704   108.820    58.556
 H      6   5   4   2.006682   178.941   182.979
 H      7   2   1   2.093802   111.494   178.248

---------------------
BASIS SET INFORMATION
---------------------
There are 4 groups of distinct atoms

 Group   1 Type C   : 11s6p2d1f contracted to 5s3p2d1f pattern {62111/411/11/1}
 Group   2 Type N   : 11s6p2d1f contracted to 5s3p2d1f pattern {62111/411/11/1}
 Group   3 Type O   : 11s6p2d1f contracted to 5s3p2d1f pattern {62111/411/11/1}
 Group   4 Type H   : 5s1p contracted to 3s1p pattern {311/1}

Atom   0C    basis set group =>   1
Atom   1N    basis set group =>   2
Atom   2C    basis set group =>   1
Atom   3C    basis set group =>   1
Atom   4C    basis set group =>   1
Atom   5C    basis set group =>   1
Atom   6C    basis set group =>   1
Atom   7O    basis set group =>   3
Atom   8H    basis set group =>   4
Atom   9H    basis set group =>   4
Atom  10H    basis set group =>   4
Atom  11H    basis set group =>   4
Atom  12H    basis set group =>   4
Atom  13H    basis set group =>   4
Atom  14H    basis set group =>   4
Atom  15H    basis set group =>   4
Atom  16H    basis set group =>   4
-------------------------------
AUXILIARY BASIS SET INFORMATION
-------------------------------
There are 4 groups of distinct atoms

 Group   1 Type C   : 14s10p6d2f1g contracted to 10s8p5d1f1g pattern {5111111111/31111111/21111/2/1}
 Group   2 Type N   : 14s10p6d2f1g contracted to 10s8p4d2f1g pattern {5111111111/31111111/3111/11/1}
 Group   3 Type O   : 14s10p6d2f1g contracted to 10s8p4d2f1g pattern {5111111111/31111111/3111/11/1}
 Group   4 Type H   : 4s2p2d contracted to 2s2p2d pattern {31/11/11}

Atom   0C    basis set group =>   1
Atom   1N    basis set group =>   2
Atom   2C    basis set group =>   1
Atom   3C    basis set group =>   1
Atom   4C    basis set group =>   1
Atom   5C    basis set group =>   1
Atom   6C    basis set group =>   1
Atom   7O    basis set group =>   3
Atom   8H    basis set group =>   4
Atom   9H    basis set group =>   4
Atom  10H    basis set group =>   4
Atom  11H    basis set group =>   4
Atom  12H    basis set group =>   4
Atom  13H    basis set group =>   4
Atom  14H    basis set group =>   4
Atom  15H    basis set group =>   4
Atom  16H    basis set group =>   4
------------------------------------------------------------------------------
                           ORCA GTO INTEGRAL CALCULATION
                           -- RI-GTO INTEGRALS CHOSEN --
------------------------------------------------------------------------------

                         BASIS SET STATISTICS AND STARTUP INFO

Gaussian basis set:
 # of primitive gaussian shells          ...  214
 # of primitive gaussian functions       ...  440
 # of contracted shells                  ...  124
 # of contracted basis functions         ...  302
 Highest angular momentum                ...    3
 Maximum contraction depth               ...    6
Auxiliary gaussian basis set:
 # of primitive gaussian shells          ...  336
 # of primitive gaussian functions       ...  956
 # of contracted shells                  ...  254
 # of contracted aux-basis functions     ...  766
 Highest angular momentum                ...    4
 Maximum contraction depth               ...    5
Ratio of auxiliary to basis functions    ...  2.54
Integral package used                  ... LIBINT
 One Electron integrals                  ... done
 Ordering auxiliary basis shells         ... done
 Integral threshhold             Thresh  ...  2.500e-11
 Primitive cut-off               TCut    ...  2.500e-12
 Pre-screening matrix                    ... done
 Shell pair data                         ... 
 Ordering of the shell pairs             ... done (   0.002 sec) 6883 of 7750 pairs
 Determination of significant pairs      ... done (   0.000 sec)
 Creation of shell pair data             ... done (   0.003 sec)
 Storage of shell pair data              ... done (   0.002 sec)
 Shell pair data done in (   0.024 sec)
 Computing two index integrals           ... done
 Cholesky decomposition of the V-matrix  ... done


Timings:
 Total evaluation time                   ...   0.480 sec (  0.008 min)
 One electron matrix time                ...   0.067 sec (  0.001 min) = 14.0%
 Schwartz matrix evaluation time         ...   0.284 sec (  0.005 min) = 59.2%
 Two index repulsion integral time       ...   0.029 sec (  0.000 min) =  6.1%
 Cholesky decomposition of V             ...   0.048 sec (  0.001 min) = 10.0%
 Three index repulsion integral time     ...   0.000 sec (  0.000 min) =  0.0%

-------------------------------------------------------------------------------
                                 ORCA SCF
-------------------------------------------------------------------------------

------------
SCF SETTINGS
------------
Hamiltonian:
 Ab initio Hamiltonian  Method          .... Hartree-Fock(GTOs)
 RI-approximation to the Coulomb term is turned on
   Number of auxiliary basis functions  .... 766
   RI-JK (J+K treated both via RI)      .... on


General Settings:
 Integral files         IntName         .... dsgdb9nsd_009066
 Hartree-Fock type      HFTyp           .... RHF
 Total Charge           Charge          ....    0
 Multiplicity           Mult            ....    1
 Number of Electrons    NEL             ....   60
 Basis Dimension        Dim             ....  302
 Nuclear Repulsion      ENuc            ....    341.9295841127 Eh

Convergence Acceleration:
 DIIS                   CNVDIIS         .... on
   Start iteration      DIISMaxIt       ....    12
   Startup error        DIISStart       ....  0.200000
   # of expansion vecs  DIISMaxEq       ....     5
   Bias factor          DIISBfac        ....   1.050
   Max. coefficient     DIISMaxC        ....  10.000
 Newton-Raphson         CNVNR           .... off
 SOSCF                  CNVSOSCF        .... on
   Start iteration      SOSCFMaxIt      ....   150
   Startup grad/error   SOSCFStart      ....  0.003300
 Level Shifting         CNVShift        .... on
   Level shift para.    LevelShift      ....    0.2500
   Turn off err/grad.   ShiftErr        ....    0.0010
 Zerner damping         CNVZerner       .... off
 Static damping         CNVDamp         .... on
   Fraction old density DampFac         ....    0.7000
   Max. Damping (<1)    DampMax         ....    0.9800
   Min. Damping (>=0)   DampMin         ....    0.0000
   Turn off err/grad.   DampErr         ....    0.1000
 Fernandez-Rico         CNVRico         .... off

SCF Procedure:
 Maximum # iterations   MaxIter         ....   125
 SCF integral mode      SCFMode         .... Direct
   Integral package                     .... LIBINT
 Reset frequeny         DirectResetFreq ....    20
 Integral Threshold     Thresh          ....  2.500e-11 Eh
 Primitive CutOff       TCut            ....  2.500e-12 Eh

Convergence Tolerance:
 Convergence Check Mode ConvCheckMode   .... Total+1el-Energy
 Energy Change          TolE            ....  1.000e-08 Eh
 1-El. energy change                    ....  1.000e-05 Eh
 Orbital Gradient       TolG            ....  1.000e-05
 Orbital Rotation angle TolX            ....  1.000e-05
 DIIS Error             TolErr          ....  5.000e-07


Diagonalization of the overlap matrix:
Smallest eigenvalue                        ... 1.950e-05
Time for diagonalization                   ...    0.024 sec
Threshold for overlap eigenvalues          ... 1.000e-08
Number of eigenvalues below threshold      ... 0
Time for construction of square roots      ...    0.012 sec
Total time needed                          ...    0.037 sec

-------------------
DFT GRID GENERATION
-------------------

General Integration Accuracy     IntAcc      ...  4.340
Radial Grid Type                 RadialGrid  ... Gauss-Chebyshev
Angular Grid (max. acc.)         AngularGrid ... Lebedev-110
Angular grid pruning method      GridPruning ... 3 (G Style)
Weight generation scheme         WeightScheme... Becke
Basis function cutoff            BFCut       ...    1.0000e-11
Integration weight cutoff        WCut        ...    1.0000e-14
Grids for H and He will be reduced by one unit

# of grid points (after initial pruning)     ...  20500 (   0.0 sec)
# of grid points (after weights+screening)   ...  19062 (   0.1 sec)
nearest neighbour list constructed           ...    0.0 sec
Grid point re-assignment to atoms done       ...    0.0 sec
Grid point division into batches done        ...    0.0 sec
Reduced shell lists constructed in    1.0 sec

Total number of grid points                  ...    19062
Total number of batches                      ...      307
Average number of points per batch           ...       62
Average number of grid points per atom       ...     1121
Average number of shells per batch           ...    81.36 (65.61%)
Average number of basis functions per batch  ...   200.19 (66.29%)
Average number of large shells per batch     ...    62.99 (77.43%)
Average number of large basis fcns per batch ...   153.45 (76.65%)
Average number of aux-shells per batch       ...    81.36 (32.03%)
Average number of aux functions per batch    ...   200.19 (  inf%)
Maximum spatial batch extension              ...  25.60, 21.27, 21.82 au
Average spatial batch extension              ...   4.02,  3.67,  3.81 au

Time for grid setup =    1.118 sec

------------------------------
INITIAL GUESS: MODEL POTENTIAL
------------------------------
Loading Hartree-Fock densities                     ... done
Calculating cut-offs                               ... done
Setting up the integral package                    ... done
Initializing the effective Hamiltonian             ... done
Starting the Coulomb interaction                   ... done (   0.5 sec)
Reading the grid                                   ... done
Mapping shells                                     ... done
Starting the XC term evaluation                    ... done (   0.5 sec)
Transforming the Hamiltonian                       ... done (   0.0 sec)
Diagonalizing the Hamiltonian                      ... done (   0.0 sec)
Back transforming the eigenvectors                 ... done (   0.0 sec)
Now organizing SCF variables                       ... done
                      ------------------
                      INITIAL GUESS DONE (   2.3 sec)
                      ------------------
--------------
SCF ITERATIONS
--------------
ITER       Energy         Delta-E        Max-DP      RMS-DP      [F,P]     Damp
  0   -361.4647375261   0.000000000000 0.05667217  0.00109906  0.3044339 0.7000
  1   -361.3159244575   0.148813068619 0.09263374  0.00117670  0.2949403 0.7000
                               ***Turning on DIIS***
  2   -361.3554213591  -0.039496901585 0.07120647  0.00088254  0.1882909 0.7000
  3   -362.3657035605  -1.010282201479 0.02431883  0.00048265  0.1350056 0.7000
  4   -361.8179784215   0.547725139052 0.07561863  0.00122152  0.0862556 0.0000
  5   -361.8586009834  -0.040622561887 0.01592335  0.00025382  0.0480145 0.0000
  6   -361.7469926994   0.111608283946 0.00479659  0.00012222  0.0109563 0.0000
  7   -361.7781294492  -0.031136749761 0.00290599  0.00006952  0.0072935 0.0000
  8   -361.7789592462  -0.000829797018 0.00240060  0.00005088  0.0058588 0.0000
                      *** Initiating the SOSCF procedure ***
                           *** Shutting down DIIS ***
                      *** Re-Reading the Fockian *** 
                      *** Removing any level shift *** 
ITER      Energy       Delta-E        Grad      Rot      Max-DP    RMS-DP
  9   -361.83161537  -0.0526561269  0.000341  0.000341  0.000771  0.000013
 10   -361.83516462  -0.0035492430  0.000173  0.000275  0.000379  0.000008
 11   -361.83516554  -0.0000009282  0.000066  0.000255  0.000424  0.000008
 12   -361.83516589  -0.0000003449  0.000032  0.000045  0.000083  0.000002
 13   -361.83516593  -0.0000000445  0.000012  0.000016  0.000043  0.000001
 14   -361.83516594  -0.0000000053  0.000004  0.000007  0.000022  0.000000
                  ***Gradient check signals convergence***
              ***Rediagonalizing the Fockian in SOSCF/NRSCF***

               *****************************************************
               *                     SUCCESS                       *
               *           SCF CONVERGED AFTER  15 CYCLES          *
               *****************************************************


----------------
TOTAL SCF ENERGY
----------------

Total Energy       :         -361.83516594 Eh           -9846.03543 eV

Components:
Nuclear Repulsion  :          341.92958411 Eh            9304.37701 eV
Electronic Energy  :         -703.76475005 Eh          -19150.41244 eV

One Electron Energy:        -1168.33709897 Eh          -31792.06874 eV
Two Electron Energy:          464.57234892 Eh           12641.65630 eV

Virial components:
Potential Energy   :         -723.16367317 Eh          -19678.28397 eV
Kinetic Energy     :          361.32850723 Eh            9832.24854 eV
Virial Ratio       :            2.00140221


---------------
SCF CONVERGENCE
---------------

  Last Energy change         ...   -9.8453e-10  Tolerance :   1.0000e-08
  Last MAX-Density change    ...    4.5395e-06  Tolerance :   1.0000e-07
  Last RMS-Density change    ...    8.3746e-08  Tolerance :   5.0000e-09
  Last Orbital Gradient      ...    1.3870e-06  Tolerance :   1.0000e-05
  Last Orbital Rotation      ...    3.9794e-06  Tolerance :   1.0000e-05

             **** THE GBW FILE WAS UPDATED (dsgdb9nsd_009066.gbw) ****
             **** DENSITY FILE WAS UPDATED (dsgdb9nsd_009066.scfp.tmp) ****
             **** ENERGY FILE WAS UPDATED (dsgdb9nsd_009066.en.tmp) ****
----------------
ORBITAL ENERGIES
----------------

  NO   OCC          E(Eh)            E(eV) 
   0   2.0000     -20.523994      -558.4863 
   1   2.0000     -15.596699      -424.4078 
   2   2.0000     -11.349788      -308.8434 
   3   2.0000     -11.290056      -307.2180 
   4   2.0000     -11.269040      -306.6462 
   5   2.0000     -11.264235      -306.5154 
   6   2.0000     -11.245672      -306.0103 
   7   2.0000     -11.233442      -305.6775 
   8   2.0000      -1.386108       -37.7179 
   9   2.0000      -1.261284       -34.3213 
  10   2.0000      -1.091992       -29.7146 
  11   2.0000      -1.009014       -27.4567 
  12   2.0000      -0.970376       -26.4053 
  13   2.0000      -0.902213       -24.5505 
  14   2.0000      -0.785278       -21.3685 
  15   2.0000      -0.735585       -20.0163 
  16   2.0000      -0.712563       -19.3898 
  17   2.0000      -0.677340       -18.4314 
  18   2.0000      -0.655701       -17.8425 
  19   2.0000      -0.628985       -17.1156 
  20   2.0000      -0.621519       -16.9124 
  21   2.0000      -0.587039       -15.9741 
  22   2.0000      -0.563869       -15.3437 
  23   2.0000      -0.548503       -14.9255 
  24   2.0000      -0.536776       -14.6064 
  25   2.0000      -0.531090       -14.4517 
  26   2.0000      -0.433984       -11.8093 
  27   2.0000      -0.408377       -11.1125 
  28   2.0000      -0.398741       -10.8503 
  29   2.0000      -0.376905       -10.2561 
  30   0.0000       0.125573         3.4170 
  31   0.0000       0.144816         3.9407 
  32   0.0000       0.155052         4.2192 
  33   0.0000       0.161629         4.3981 
  34   0.0000       0.170023         4.6266 
  35   0.0000       0.176683         4.8078 
  36   0.0000       0.183859         5.0031 
  37   0.0000       0.189174         5.1477 
  38   0.0000       0.210091         5.7169 
  39   0.0000       0.217342         5.9142 
  40   0.0000       0.223608         6.0847 
  41   0.0000       0.240136         6.5344 
  42   0.0000       0.246498         6.7076 
  43   0.0000       0.264723         7.2035 
  44   0.0000       0.288097         7.8395 
  45   0.0000       0.296509         8.0684 
  46   0.0000       0.308130         8.3846 
  47   0.0000       0.317393         8.6367 
  48   0.0000       0.331457         9.0194 
  49   0.0000       0.337105         9.1731 
  50   0.0000       0.348271         9.4769 
  51   0.0000       0.361534         9.8379 
  52   0.0000       0.385587        10.4924 
  53   0.0000       0.403080        10.9684 
  54   0.0000       0.430779        11.7221 
  55   0.0000       0.452198        12.3049 
  56   0.0000       0.462123        12.5750 
  57   0.0000       0.468719        12.7545 
  58   0.0000       0.489090        13.3088 
  59   0.0000       0.497763        13.5448 
  60   0.0000       0.502329        13.6691 
  61   0.0000       0.520500        14.1635 
  62   0.0000       0.525257        14.2930 
  63   0.0000       0.529194        14.4001 
  64   0.0000       0.536174        14.5900 
  65   0.0000       0.546998        14.8846 
  66   0.0000       0.569937        15.5088 
  67   0.0000       0.591111        16.0849 
  68   0.0000       0.601125        16.3574 
  69   0.0000       0.620237        16.8775 
  70   0.0000       0.623310        16.9611 
  71   0.0000       0.642866        17.4933 
  72   0.0000       0.652393        17.7525 
  73   0.0000       0.666105        18.1256 
  74   0.0000       0.681871        18.5547 
  75   0.0000       0.697306        18.9747 
  76   0.0000       0.702150        19.1065 
  77   0.0000       0.719718        19.5845 
  78   0.0000       0.720905        19.6168 
  79   0.0000       0.736816        20.0498 
  80   0.0000       0.753008        20.4904 
  81   0.0000       0.761324        20.7167 
  82   0.0000       0.779351        21.2072 
  83   0.0000       0.788574        21.4582 
  84   0.0000       0.812554        22.1107 
  85   0.0000       0.821825        22.3630 
  86   0.0000       0.837286        22.7837 
  87   0.0000       0.857055        23.3217 
  88   0.0000       0.873763        23.7763 
  89   0.0000       0.885502        24.0957 
  90   0.0000       0.920410        25.0456 
  91   0.0000       0.961070        26.1521 
  92   0.0000       0.986764        26.8512 
  93   0.0000       1.001875        27.2624 
  94   0.0000       1.024217        27.8704 
  95   0.0000       1.045366        28.4459 
  96   0.0000       1.071476        29.1564 
  97   0.0000       1.078269        29.3412 
  98   0.0000       1.106379        30.1061 
  99   0.0000       1.113518        30.3004 
 100   0.0000       1.137845        30.9623 
 101   0.0000       1.167187        31.7608 
 102   0.0000       1.183812        32.2132 
 103   0.0000       1.201702        32.7000 
 104   0.0000       1.212823        33.0026 
 105   0.0000       1.229896        33.4672 
 106   0.0000       1.253649        34.1135 
 107   0.0000       1.271970        34.6121 
 108   0.0000       1.292650        35.1748 
 109   0.0000       1.308801        35.6143 
 110   0.0000       1.329257        36.1709 
 111   0.0000       1.380739        37.5718 
 112   0.0000       1.387974        37.7687 
 113   0.0000       1.401964        38.1494 
 114   0.0000       1.449453        39.4416 
 115   0.0000       1.509352        41.0716 
 116   0.0000       1.538347        41.8606 
 117   0.0000       1.566871        42.6367 
 118   0.0000       1.601570        43.5809 
 119   0.0000       1.634545        44.4782 
 120   0.0000       1.672557        45.5126 
 121   0.0000       1.681820        45.7646 
 122   0.0000       1.705734        46.4154 
 123   0.0000       1.711779        46.5799 
 124   0.0000       1.738007        47.2936 
 125   0.0000       1.758902        47.8622 
 126   0.0000       1.766530        48.0697 
 127   0.0000       1.783243        48.5245 
 128   0.0000       1.794242        48.8238 
 129   0.0000       1.799279        48.9609 
 130   0.0000       1.819342        49.5068 
 131   0.0000       1.836180        49.9650 
 132   0.0000       1.837541        50.0020 
 133   0.0000       1.860180        50.6181 
 134   0.0000       1.878293        51.1109 
 135   0.0000       1.884001        51.2663 
 136   0.0000       1.908607        51.9358 
 137   0.0000       1.923952        52.3534 
 138   0.0000       1.949178        53.0398 
 139   0.0000       1.955937        53.2237 
 140   0.0000       1.967853        53.5480 
 141   0.0000       1.972089        53.6633 
 142   0.0000       1.980368        53.8886 
 143   0.0000       2.049864        55.7796 
 144   0.0000       2.068419        56.2845 
 145   0.0000       2.116403        57.5902 
 146   0.0000       2.127824        57.9010 
 147   0.0000       2.155184        58.6455 
 148   0.0000       2.174433        59.1693 
 149   0.0000       2.191487        59.6334 
 150   0.0000       2.224853        60.5413 
 151   0.0000       2.257204        61.4216 
 152   0.0000       2.272645        61.8418 
 153   0.0000       2.305736        62.7423 
 154   0.0000       2.327780        63.3421 
 155   0.0000       2.348257        63.8993 
 156   0.0000       2.389967        65.0343 
 157   0.0000       2.438811        66.3634 
 158   0.0000       2.465938        67.1016 
 159   0.0000       2.473526        67.3081 
 160   0.0000       2.502930        68.1082 
 161   0.0000       2.512881        68.3790 
 162   0.0000       2.550380        69.3994 
 163   0.0000       2.579471        70.1910 
 164   0.0000       2.582231        70.2661 
 165   0.0000       2.610720        71.0413 
 166   0.0000       2.617297        71.2203 
 167   0.0000       2.630957        71.5920 
 168   0.0000       2.666681        72.5641 
 169   0.0000       2.704607        73.5961 
 170   0.0000       2.720327        74.0239 
 171   0.0000       2.739192        74.5372 
 172   0.0000       2.766577        75.2824 
 173   0.0000       2.769706        75.3675 
 174   0.0000       2.784675        75.7748 
 175   0.0000       2.802345        76.2557 
 176   0.0000       2.821205        76.7689 
 177   0.0000       2.835745        77.1646 
 178   0.0000       2.842642        77.3522 
 179   0.0000       2.852308        77.6152 
 180   0.0000       2.861264        77.8589 
 181   0.0000       2.872016        78.1515 
 182   0.0000       2.919743        79.4502 
 183   0.0000       2.938242        79.9536 
 184   0.0000       2.938771        79.9680 
 185   0.0000       2.973244        80.9061 
 186   0.0000       2.978220        81.0415 
 187   0.0000       3.012280        81.9683 
 188   0.0000       3.038879        82.6921 
 189   0.0000       3.060992        83.2938 
 190   0.0000       3.075746        83.6953 
 191   0.0000       3.090188        84.0883 
 192   0.0000       3.122910        84.9787 
 193   0.0000       3.140940        85.4693 
 194   0.0000       3.163059        86.0712 
 195   0.0000       3.194847        86.9362 
 196   0.0000       3.199608        87.0658 
 197   0.0000       3.236753        88.0765 
 198   0.0000       3.244921        88.2988 
 199   0.0000       3.267598        88.9159 
 200   0.0000       3.289922        89.5233 
 201   0.0000       3.303594        89.8954 
 202   0.0000       3.303985        89.9060 
 203   0.0000       3.330241        90.6205 
 204   0.0000       3.345206        91.0277 
 205   0.0000       3.348295        91.1117 
 206   0.0000       3.370368        91.7124 
 207   0.0000       3.378372        91.9302 
 208   0.0000       3.401523        92.5601 
 209   0.0000       3.411583        92.8339 
 210   0.0000       3.415552        92.9419 
 211   0.0000       3.434205        93.4495 
 212   0.0000       3.443778        93.7100 
 213   0.0000       3.454186        93.9932 
 214   0.0000       3.479883        94.6924 
 215   0.0000       3.512760        95.5870 
 216   0.0000       3.526207        95.9530 
 217   0.0000       3.549826        96.5957 
 218   0.0000       3.572919        97.2241 
 219   0.0000       3.578527        97.3767 
 220   0.0000       3.587503        97.6209 
 221   0.0000       3.640544        99.0642 
 222   0.0000       3.648265        99.2743 
 223   0.0000       3.660323        99.6024 
 224   0.0000       3.678167       100.0880 
 225   0.0000       3.702306       100.7449 
 226   0.0000       3.725620       101.3793 
 227   0.0000       3.733825       101.6025 
 228   0.0000       3.745184       101.9116 
 229   0.0000       3.755159       102.1831 
 230   0.0000       3.776340       102.7594 
 231   0.0000       3.795868       103.2908 
 232   0.0000       3.819816       103.9425 
 233   0.0000       3.845834       104.6505 
 234   0.0000       3.892045       105.9079 
 235   0.0000       3.902093       106.1814 
 236   0.0000       3.933521       107.0365 
 237   0.0000       3.944153       107.3259 
 238   0.0000       4.012243       109.1787 
 239   0.0000       4.046668       110.1154 
 240   0.0000       4.083082       111.1063 
 241   0.0000       4.087159       111.2173 
 242   0.0000       4.111947       111.8918 
 243   0.0000       4.182701       113.8171 
 244   0.0000       4.204620       114.4135 
 245   0.0000       4.233347       115.1952 
 246   0.0000       4.291284       116.7718 
 247   0.0000       4.317525       117.4858 
 248   0.0000       4.344124       118.2096 
 249   0.0000       4.405583       119.8820 
 250   0.0000       4.427330       120.4738 
 251   0.0000       4.474453       121.7561 
 252   0.0000       4.532039       123.3231 
 253   0.0000       4.556551       123.9901 
 254   0.0000       4.567470       124.2872 
 255   0.0000       4.617777       125.6561 
 256   0.0000       4.630978       126.0153 
 257   0.0000       4.776158       129.9659 
 258   0.0000       4.799340       130.5967 
 259   0.0000       4.823644       131.2580 
 260   0.0000       4.863154       132.3332 
 261   0.0000       4.906950       133.5249 
 262   0.0000       4.929034       134.1258 
 263   0.0000       4.970329       135.2495 
 264   0.0000       5.104293       138.8949 
 265   0.0000       5.241241       142.6214 
 266   0.0000       5.292708       144.0219 
 267   0.0000       5.330270       145.0440 
 268   0.0000       5.350555       145.5960 
 269   0.0000       5.360948       145.8788 
 270   0.0000       5.420038       147.4867 
 271   0.0000       5.495993       149.5536 
 272   0.0000       5.527233       150.4036 
 273   0.0000       5.626604       153.1077 
 274   0.0000       5.650194       153.7496 
 275   0.0000       5.659486       154.0024 
 276   0.0000       5.700561       155.1202 
 277   0.0000       5.717251       155.5743 
 278   0.0000       5.725152       155.7893 
 279   0.0000       5.931805       161.4126 
 280   0.0000       5.968946       162.4233 
 281   0.0000       6.011270       163.5750 
 282   0.0000       6.110320       166.2703 
 283   0.0000       6.150137       167.3537 
 284   0.0000       6.186203       168.3352 
 285   0.0000       6.305125       171.5712 
 286   0.0000       6.601662       179.6404 
 287   0.0000       6.899008       187.7315 
 288   0.0000       6.899492       187.7447 
 289   0.0000       7.002576       190.5498 
 290   0.0000       7.100438       193.2127 
 291   0.0000       7.331398       199.4975 
 292   0.0000       7.520141       204.6334 
 293   0.0000       7.618103       207.2991 
 294   0.0000      23.500095       639.4701 
 295   0.0000      23.627666       642.9415 
 296   0.0000      23.644041       643.3871 
 297   0.0000      23.660451       643.8336 
 298   0.0000      24.148951       657.1264 
 299   0.0000      24.629560       670.2044 
 300   0.0000      34.134946       928.8591 
 301   0.0000      45.401999      1235.4512 

                    ********************************
                    * MULLIKEN POPULATION ANALYSIS *
                    ********************************

-----------------------
MULLIKEN ATOMIC CHARGES
-----------------------
   0 C :   -0.252316
   1 N :   -0.175781
   2 C :   -0.113694
   3 C :   -0.278235
   4 C :   -0.129104
   5 C :   -0.071205
   6 C :    0.332960
   7 O :   -0.503157
   8 H :    0.111875
   9 H :    0.178423
  10 H :    0.107736
  11 H :    0.122947
  12 H :    0.119910
  13 H :    0.130568
  14 H :    0.129762
  15 H :    0.203776
  16 H :    0.085536
Sum of atomic charges:    0.0000000

--------------------------------
MULLIKEN REDUCED ORBITAL CHARGES
--------------------------------
  0 C s       :     3.239812  s :     3.239812
      pz      :     1.123181  p :     2.908624
      px      :     1.031846
      py      :     0.753596
      dz2     :     0.014919  d :     0.096620
      dxz     :     0.013481
      dyz     :     0.019576
      dx2y2   :     0.017895
      dxy     :     0.030750
      f0      :     0.001035  f :     0.007260
      f+1     :     0.000324
      f-1     :     0.001094
      f+2     :     0.001094
      f-2     :     0.000156
      f+3     :     0.002003
      f-3     :     0.001555
  1 N s       :     3.419441  s :     3.419441
      pz      :     1.021815  p :     3.669695
      px      :     1.616638
      py      :     1.031241
      dz2     :     0.020269  d :     0.081265
      dxz     :     0.010425
      dyz     :     0.030212
      dx2y2   :     0.010520
      dxy     :     0.009839
      f0      :     0.001097  f :     0.005380
      f+1     :     0.000633
      f-1     :     0.001138
      f+2     :     0.000856
      f-2     :     0.000305
      f+3     :     0.000544
      f-3     :     0.000807
  2 C s       :     3.182448  s :     3.182448
      pz      :     0.843561  p :     2.787150
      px      :     0.949487
      py      :     0.994101
      dz2     :     0.020590  d :     0.134678
      dxz     :     0.047525
      dyz     :     0.022638
      dx2y2   :     0.019904
      dxy     :     0.024021
      f0      :     0.001221  f :     0.009419
      f+1     :     0.001569
      f-1     :     0.001717
      f+2     :     0.001486
      f-2     :     0.001786
      f+3     :     0.000941
      f-3     :     0.000699
  3 C s       :     3.260418  s :     3.260418
      pz      :     0.931493  p :     2.905930
      px      :     0.966206
      py      :     1.008230
      dz2     :     0.021198  d :     0.105923
      dxz     :     0.026877
      dyz     :     0.019746
      dx2y2   :     0.018032
      dxy     :     0.020070
      f0      :     0.000609  f :     0.005964
      f+1     :     0.000792
      f-1     :     0.001169
      f+2     :     0.001125
      f-2     :     0.000862
      f+3     :     0.000818
      f-3     :     0.000590
  4 C s       :     3.390780  s :     3.390780
      pz      :     0.766548  p :     2.613221
      px      :     0.966500
      py      :     0.880173
      dz2     :     0.035885  d :     0.113065
      dxz     :     0.026531
      dyz     :     0.028774
      dx2y2   :     0.011609
      dxy     :     0.010266
      f0      :     0.003372  f :     0.012038
      f+1     :     0.001943
      f-1     :     0.002001
      f+2     :     0.001735
      f-2     :     0.002315
      f+3     :     0.000354
      f-3     :     0.000319
  5 C s       :     3.015450  s :     3.015450
      pz      :     1.034193  p :     3.030484
      px      :     0.985145
      py      :     1.011145
      dz2     :     0.004898  d :     0.016844
      dxz     :     0.008635
      dyz     :    -0.002257
      dx2y2   :     0.002011
      dxy     :     0.003558
      f0      :     0.002151  f :     0.008427
      f+1     :     0.001145
      f-1     :     0.001977
      f+2     :     0.001285
      f-2     :     0.001453
      f+3     :     0.000217
      f-3     :     0.000199
  6 C s       :     3.099984  s :     3.099984
      pz      :     0.734588  p :     2.301928
      px      :     0.669934
      py      :     0.897406
      dz2     :     0.072584  d :     0.244205
      dxz     :     0.083149
      dyz     :     0.051361
      dx2y2   :     0.027333
      dxy     :     0.009779
      f0      :     0.005843  f :     0.020923
      f+1     :     0.003622
      f-1     :     0.004114
      f+2     :     0.002407
      f-2     :     0.003803
      f+3     :     0.000444
      f-3     :     0.000691
  7 O s       :     3.844749  s :     3.844749
      pz      :     1.443624  p :     4.620584
      px      :     1.480306
      py      :     1.696654
      dz2     :     0.011381  d :     0.035649
      dxz     :     0.009875
      dyz     :     0.010256
      dx2y2   :     0.001527
      dxy     :     0.002610
      f0      :     0.000545  f :     0.002176
      f+1     :     0.000363
      f-1     :     0.000679
      f+2     :     0.000240
      f-2     :     0.000327
      f+3     :     0.000012
      f-3     :     0.000009
  8 H s       :     0.866909  s :     0.866909
      pz      :     0.007264  p :     0.021216
      px      :     0.009123
      py      :     0.004829
  9 H s       :     0.798481  s :     0.798481
      pz      :     0.014821  p :     0.023096
      px      :     0.003747
      py      :     0.004527
 10 H s       :     0.870923  s :     0.870923
      pz      :     0.004913  p :     0.021341
      px      :     0.012531
      py      :     0.003897
 11 H s       :     0.854738  s :     0.854738
      pz      :     0.003377  p :     0.022315
      px      :     0.005314
      py      :     0.013623
 12 H s       :     0.858158  s :     0.858158
      pz      :     0.008614  p :     0.021933
      px      :     0.008444
      py      :     0.004875
 13 H s       :     0.846908  s :     0.846908
      pz      :     0.003741  p :     0.022524
      px      :     0.005647
      py      :     0.013135
 14 H s       :     0.847811  s :     0.847811
      pz      :     0.008492  p :     0.022427
      px      :     0.008455
      py      :     0.005480
 15 H s       :     0.771803  s :     0.771803
      pz      :     0.013398  p :     0.024421
      px      :     0.003515
      py      :     0.007508
 16 H s       :     0.893703  s :     0.893703
      pz      :     0.002040  p :     0.020760
      px      :     0.001997
      py      :     0.016723


                     *******************************
                     * LOEWDIN POPULATION ANALYSIS *
                     *******************************

----------------------
LOEWDIN ATOMIC CHARGES
----------------------
   0 C :   -0.251967
   1 N :    0.117007
   2 C :   -0.223904
   3 C :   -0.221181
   4 C :   -0.116387
   5 C :   -0.102319
   6 C :   -0.328778
   7 O :   -0.016202
   8 H :    0.108002
   9 H :    0.130489
  10 H :    0.104586
  11 H :    0.133956
  12 H :    0.130890
  13 H :    0.146900
  14 H :    0.148069
  15 H :    0.125533
  16 H :    0.115306

-------------------------------
LOEWDIN REDUCED ORBITAL CHARGES
-------------------------------
  0 C s       :     2.827018  s :     2.827018
      pz      :     1.093010  p :     3.038649
      px      :     1.070023
      py      :     0.875616
      dz2     :     0.045843  d :     0.345006
      dxz     :     0.037569
      dyz     :     0.072595
      dx2y2   :     0.080166
      dxy     :     0.108832
      f0      :     0.004855  f :     0.041294
      f+1     :     0.001567
      f-1     :     0.006257
      f+2     :     0.005837
      f-2     :     0.002661
      f+3     :     0.012430
      f-3     :     0.007687
  1 N s       :     2.886838  s :     2.886838
      pz      :     1.153792  p :     3.692563
      px      :     1.386694
      py      :     1.152078
      dz2     :     0.075402  d :     0.284516
      dxz     :     0.033680
      dyz     :     0.103339
      dx2y2   :     0.037931
      dxy     :     0.034164
      f0      :     0.005299  f :     0.019075
      f+1     :     0.001989
      f-1     :     0.002664
      f+2     :     0.003721
      f-2     :     0.001678
      f+3     :     0.002037
      f-3     :     0.001686
  2 C s       :     2.773794  s :     2.773794
      pz      :     0.913099  p :     2.915452
      px      :     1.012252
      py      :     0.990101
      dz2     :     0.087187  d :     0.480040
      dxz     :     0.150174
      dyz     :     0.086866
      dx2y2   :     0.074166
      dxy     :     0.081646
      f0      :     0.008529  f :     0.054618
      f+1     :     0.010361
      f-1     :     0.008670
      f+2     :     0.006384
      f-2     :     0.010613
      f+3     :     0.005149
      f-3     :     0.004911
  3 C s       :     2.765289  s :     2.765289
      pz      :     0.999671  p :     3.018386
      px      :     1.008255
      py      :     1.010460
      dz2     :     0.080489  d :     0.399368
      dxz     :     0.104896
      dyz     :     0.070050
      dx2y2   :     0.068048
      dxy     :     0.075885
      f0      :     0.006073  f :     0.038138
      f+1     :     0.006788
      f-1     :     0.005213
      f+2     :     0.004835
      f-2     :     0.006236
      f+3     :     0.004539
      f-3     :     0.004453
  4 C s       :     2.805576  s :     2.805576
      pz      :     1.079507  p :     2.913741
      px      :     0.877179
      py      :     0.957055
      dz2     :     0.108828  d :     0.351982
      dxz     :     0.091696
      dyz     :     0.082041
      dx2y2   :     0.034507
      dxy     :     0.034910
      f0      :     0.010045  f :     0.045088
      f+1     :     0.005411
      f-1     :     0.013784
      f+2     :     0.007441
      f-2     :     0.006329
      f+3     :     0.000969
      f-3     :     0.001109
  5 C s       :     2.884960  s :     2.884960
      pz      :     1.083170  p :     3.035968
      px      :     0.944114
      py      :     1.008685
      dz2     :     0.045413  d :     0.145818
      dxz     :     0.028499
      dyz     :     0.047952
      dx2y2   :     0.012260
      dxy     :     0.011694
      f0      :     0.007353  f :     0.035573
      f+1     :     0.003818
      f-1     :     0.012134
      f+2     :     0.005927
      f-2     :     0.004833
      f+3     :     0.000737
      f-3     :     0.000771
  6 C s       :     2.796402  s :     2.796402
      pz      :     0.950054  p :     2.602509
      px      :     0.680085
      py      :     0.972370
      dz2     :     0.274935  d :     0.809875
      dxz     :     0.216230
      dyz     :     0.216061
      dx2y2   :     0.079001
      dxy     :     0.023648
      f0      :     0.036677  f :     0.119992
      f+1     :     0.014651
      f-1     :     0.022113
      f+2     :     0.019315
      f-2     :     0.023396
      f+3     :     0.001172
      f-3     :     0.002668
  7 O s       :     3.411585  s :     3.411585
      pz      :     1.521363  p :     4.531527
      px      :     1.381702
      py      :     1.628461
      dz2     :     0.025055  d :     0.067454
      dxz     :     0.010917
      dyz     :     0.024430
      dx2y2   :     0.004405
      dxy     :     0.002647
      f0      :     0.001726  f :     0.005637
      f+1     :     0.000621
      f-1     :     0.002014
      f+2     :     0.000772
      f-2     :     0.000410
      f+3     :     0.000028
      f-3     :     0.000066
  8 H s       :     0.832572  s :     0.832572
      pz      :     0.021418  p :     0.059426
      px      :     0.025242
      py      :     0.012766
  9 H s       :     0.804835  s :     0.804835
      pz      :     0.039927  p :     0.064676
      px      :     0.012568
      py      :     0.012181
 10 H s       :     0.835719  s :     0.835719
      pz      :     0.015880  p :     0.059695
      px      :     0.032842
      py      :     0.010972
 11 H s       :     0.807789  s :     0.807789
      pz      :     0.010363  p :     0.058255
      px      :     0.015006
      py      :     0.032886
 12 H s       :     0.811280  s :     0.811280
      pz      :     0.021398  p :     0.057829
      px      :     0.021485
      py      :     0.014946
 13 H s       :     0.795097  s :     0.795097
      pz      :     0.011756  p :     0.058003
      px      :     0.015270
      py      :     0.030976
 14 H s       :     0.794161  s :     0.794161
      pz      :     0.020715  p :     0.057770
      px      :     0.020797
      py      :     0.016258
 15 H s       :     0.804448  s :     0.804448
      pz      :     0.035645  p :     0.070019
      px      :     0.012457
      py      :     0.021916
 16 H s       :     0.831311  s :     0.831311
      pz      :     0.006377  p :     0.053383
      px      :     0.006700
      py      :     0.040306


                      *****************************
                      * MAYER POPULATION ANALYSIS *
                      *****************************

  NA   - Mulliken gross atomic population
  ZA   - Total nuclear charge
  QA   - Mulliken gross atomic charge
  VA   - Mayer's total valence
  BVA  - Mayer's bonded valence
  FA   - Mayer's free valence

  ATOM       NA         ZA         QA         VA         BVA        FA
  0 C      6.2523     6.0000    -0.2523     3.8531     3.8531     0.0000
  1 N      7.1758     7.0000    -0.1758     2.8857     2.8857     0.0000
  2 C      6.1137     6.0000    -0.1137     3.8798     3.8798    -0.0000
  3 C      6.2782     6.0000    -0.2782     3.8026     3.8026    -0.0000
  4 C      6.1291     6.0000    -0.1291     3.9879     3.9879     0.0000
  5 C      6.0712     6.0000    -0.0712     3.6473     3.6473    -0.0000
  6 C      5.6670     6.0000     0.3330     4.1266     4.1266     0.0000
  7 O      8.5032     8.0000    -0.5032     1.9543     1.9543     0.0000
  8 H      0.8881     1.0000     0.1119     0.9631     0.9631     0.0000
  9 H      0.8216     1.0000     0.1784     0.9771     0.9771     0.0000
 10 H      0.8923     1.0000     0.1077     0.9579     0.9579    -0.0000
 11 H      0.8771     1.0000     0.1229     0.9763     0.9763    -0.0000
 12 H      0.8801     1.0000     0.1199     0.9777     0.9777    -0.0000
 13 H      0.8694     1.0000     0.1306     0.9605     0.9605     0.0000
 14 H      0.8702     1.0000     0.1298     0.9696     0.9696     0.0000
 15 H      0.7962     1.0000     0.2038     0.9656     0.9656     0.0000
 16 H      0.9145     1.0000     0.0855     0.9701     0.9701     0.0000

  Mayer bond orders larger than 0.1
B(  0-C ,  1-N ) :   0.8900 B(  0-C ,  8-H ) :   0.9829 B(  0-C ,  9-H ) :   0.9696 
B(  0-C , 10-H ) :   0.9844 B(  1-N ,  2-C ) :   0.9393 B(  1-N ,  6-C ) :   1.1881 
B(  2-C ,  3-C ) :   0.9448 B(  2-C , 11-H ) :   0.9901 B(  2-C , 12-H ) :   0.9972 
B(  3-C ,  4-C ) :   1.1305 B(  3-C ,  5-C ) :  -0.1564 B(  3-C , 13-H ) :   0.9888 
B(  3-C , 14-H ) :   0.9806 B(  4-C ,  5-C ) :   2.8444 B(  5-C , 15-H ) :   0.9178 
B(  6-C ,  7-O ) :   1.9161 B(  6-C , 16-H ) :   0.9870 

-------
TIMINGS
-------

Total SCF time: 0 days 0 hours 1 min 41 sec 

Total time                  ....     101.329 sec
Sum of individual times     ....     104.594 sec  (103.2%)

Fock matrix formation       ....     100.134 sec  ( 98.8%)
Diagonalization             ....       0.525 sec  (  0.5%)
Density matrix formation    ....       0.035 sec  (  0.0%)
Population analysis         ....       0.115 sec  (  0.1%)
Initial guess               ....       2.257 sec  (  2.2%)
Orbital Transformation      ....       0.000 sec  (  0.0%)
Orbital Orthonormalization  ....       0.000 sec  (  0.0%)
DIIS solution               ....       0.146 sec  (  0.1%)
SOSCF solution              ....       0.264 sec  (  0.3%)

   <<< Auxbasis replaced with dsgdb9nsd_009066.AUXC.tmp (Dim=743) >>> 


------------------------------------------------------------------------------
                              ORCA MP2 CALCULATION
------------------------------------------------------------------------------

Freezing NCore=16 chemical core electrons

   <<< Use J-auxbasis for calculation of Separable RI-J derivative contributions dsgdb9nsd_009066.AUXJ.tmp (Dim=766) >>> 


---------------------
RI-MP2 ENERGY+DENSITY
---------------------
Dimension of the basis                    ...  302
Memory devoted to MP2                     ... 2000 MB   
Data format for buffers                   ... DOUBLE
Compression type for matrix containers    ... UNCOMPRESSED
Overall scaling of the MP2 energy         ...   1.000e+00 Eh
Calculating two index integrals           ... done (    0.015 sec)
Cholesky decomposition of V**-1           ... done (    0.084 sec)

-----------------
RI-TRANSFORMATION (AUX index driven)
-----------------

Dimension of the orbital-basis         ... 302
Dimension of the aux-basis             ... 743
Transformation of internal MOs         ...    0-  29
Transformation of internal/external MOs...    0-  29 to   30- 301
Number Format for Storage              ... Double (8 Byte)
Integral mode                          ... Direct

First Phase: integral generation and transformation of MO indices
  Aux angular momentum 0               ... done (    0.531 sec)
  Aux angular momentum 1               ... done (    0.698 sec)
  Aux angular momentum 2               ... done (    0.736 sec)
  Aux angular momentum 3               ... done (    0.553 sec)
  Aux angular momentum 4               ... done (    0.255 sec)
Closing buffer VIJ ( 0.00 GB; CompressionRatio= 1.93)
Closing buffer VIA ( 0.05 GB; CompressionRatio= 1.00)
  Phase 1 completed in     2.870 sec
Second Phase: sorting and transformation of aux index

IJ-Transformation
Memory available                       ... 1989 MB 
Max. # MO pairs treated in a batch     ... 30    
# of internal orbitals                 ... 30
# batches for internal orbitals        ... 1
Closing buffer IJV ( 0.00 GB; CompressionRatio= 1.00)
(ij|v) transformation done in     0.119 sec

IA-Transformation
Memory available                       ... 1989 MB 
Max. # MO pairs treated in a batch     ... 30    
# of internal orbitals                 ... 30
# batches for internal orbitals        ... 1
Closing buffer IAV ( 0.05 GB; CompressionRatio= 1.00)
(ia|v) transformation done in     0.919 sec

  Phase 2 completed in     1.153 sec
RI-Integral transformation completed in     4.023 sec
Opening buffers                              ... done
Frozen core precalculation                   ... done

Starting loop over batches of integrals:

Operator 0  - window                       ... (  8- 29)x( 30-301)
Operator 0  - Memory available             ...  2000 MB
Operator 0  - Memory needed per MO         ...   3.1 MB
Operator 0  - Number of orbitals per batch ... 22
Operator 0  - Number of batches            ... 1

OPERATOR  0   PASS   0:  MOs     8 ...   29
  Reading integrals       ... ok
  Internal MO  10
  Internal MO  13
  Internal MO  16
  Internal MO  19
  Internal MO  22
  Internal MO  25
  Internal MO  28
Time spent in pair loops =    21.341 sec
Deleting buffer (Ka|jb)[aa] ...done

-----------------------------------------------
 RI-MP2 CORRELATION ENERGY:     -1.385579646 Eh
-----------------------------------------------


---------------------
MP2 DENSITY FORMATION
---------------------

Completing the external part of the density      ... done
Storing the unrelaxed density                    ... done

Calculating G(D)                                 ... done
Completing the Lagrangian                        ... done
Solving the Z-vector equations                   ... 

------------------------------------------------------------------------------
                           ORCA CP-SCF CALCULATION
------------------------------------------------------------------------------

Input orbitals are from        ... dsgdb9nsd_009066.gbw
Input Perturbation             ... dsgdb9nsd_009066.pin.tmp
Wavefunction output            ... dsgdb9nsd_009066.pout.tmp
Perturbation mode              ... Real perturbation
Solver                         ... POPLE
Max. number of iterations      ... 128
Convergence tolerance          ... 1.000e-08
Integral handling              ... Direct
Number of perturbations        ... 1
Number of operators            ... 1
Orbital ranges used for CP-SCF:
 Operator 0:  Orbitals   0... 29  to  30...301
Variables per vector in CP-SCF ... 8160
Number of vectors sought       ... 1
     CP-SCF ITERATION   0: 
     CP-SCF ITERATION   1:      0.002112211
     CP-SCF ITERATION   2:      0.000465748
     CP-SCF ITERATION   3:      0.000024845
     CP-SCF ITERATION   4:      0.000004269
     CP-SCF ITERATION   5:      0.000000456
     CP-SCF ITERATION   6:      0.000000055
     CP-SCF ITERATION   7:      0.000000008
done
Finalizing the relaxed density                   ... done
Transforming P to the AO basis                   ... done
Storing the relaxed density                      ... done

                *********************************************
                * UNRELAXED MP2 DENSITY POPULATION ANALYSIS *
                *********************************************

------------------------------------------------------------------------------
                           ORCA POPULATION ANALYSIS
------------------------------------------------------------------------------
Input electron density              ... dsgdb9nsd_009066.pmp2ur
BaseName (.gbw .S,...)              ... dsgdb9nsd_009066

                    ********************************
                    * MULLIKEN POPULATION ANALYSIS *
                    ********************************

-----------------------
MULLIKEN ATOMIC CHARGES
-----------------------
   0 C :   -0.262638
   1 N :   -0.164796
   2 C :   -0.124119
   3 C :   -0.282448
   4 C :   -0.131012
   5 C :   -0.074441
   6 C :    0.301115
   7 O :   -0.478974
   8 H :    0.114924
   9 H :    0.180296
  10 H :    0.110796
  11 H :    0.126393
  12 H :    0.123430
  13 H :    0.134161
  14 H :    0.133137
  15 H :    0.206984
  16 H :    0.087192
Sum of atomic charges:    0.0000000

--------------------------------
MULLIKEN REDUCED ORBITAL CHARGES
--------------------------------
  0 C s       :     3.237025  s :     3.237025
      pz      :     1.116072  p :     2.895680
      px      :     1.026538
      py      :     0.753070
      dz2     :     0.019772  d :     0.119181
      dxz     :     0.018791
      dyz     :     0.024306
      dx2y2   :     0.021131
      dxy     :     0.035181
      f0      :     0.001541  f :     0.010752
      f+1     :     0.000883
      f-1     :     0.001550
      f+2     :     0.001598
      f-2     :     0.000687
      f+3     :     0.002501
      f-3     :     0.001992
  1 N s       :     3.414649  s :     3.414649
      pz      :     1.012006  p :     3.626165
      px      :     1.593289
      py      :     1.020869
      dz2     :     0.026834  d :     0.115078
      dxz     :     0.017847
      dyz     :     0.036140
      dx2y2   :     0.017389
      dxy     :     0.016867
      f0      :     0.001646  f :     0.008905
      f+1     :     0.001130
      f-1     :     0.001677
      f+2     :     0.001361
      f-2     :     0.000833
      f+3     :     0.001013
      f-3     :     0.001244
  2 C s       :     3.180359  s :     3.180359
      pz      :     0.841130  p :     2.774475
      px      :     0.943974
      py      :     0.989371
      dz2     :     0.024977  d :     0.156164
      dxz     :     0.051170
      dyz     :     0.026611
      dx2y2   :     0.024251
      dxy     :     0.029155
      f0      :     0.001752  f :     0.013121
      f+1     :     0.002171
      f-1     :     0.002133
      f+2     :     0.002012
      f-2     :     0.002331
      f+3     :     0.001451
      f-3     :     0.001271
  3 C s       :     3.255820  s :     3.255820
      pz      :     0.925092  p :     2.885301
      px      :     0.958461
      py      :     1.001747
      dz2     :     0.026431  d :     0.131338
      dxz     :     0.031788
      dyz     :     0.024412
      dx2y2   :     0.022856
      dxy     :     0.025851
      f0      :     0.001227  f :     0.009990
      f+1     :     0.001438
      f-1     :     0.001650
      f+2     :     0.001672
      f-2     :     0.001476
      f+3     :     0.001346
      f-3     :     0.001181
  4 C s       :     3.383433  s :     3.383433
      pz      :     0.763432  p :     2.599181
      px      :     0.960281
      py      :     0.875468
      dz2     :     0.039283  d :     0.133077
      dxz     :     0.030425
      dyz     :     0.032406
      dx2y2   :     0.016119
      dxy     :     0.014844
      f0      :     0.003918  f :     0.015322
      f+1     :     0.002470
      f-1     :     0.002502
      f+2     :     0.002192
      f-2     :     0.002787
      f+3     :     0.000745
      f-3     :     0.000709
  5 C s       :     3.009252  s :     3.009252
      pz      :     1.027459  p :     3.009870
      px      :     0.978343
      py      :     1.004069
      dz2     :     0.010634  d :     0.043913
      dxz     :     0.013332
      dyz     :     0.004515
      dx2y2   :     0.007058
      dxy     :     0.008374
      f0      :     0.002634  f :     0.011405
      f+1     :     0.001615
      f-1     :     0.002433
      f+2     :     0.001702
      f-2     :     0.001876
      f+3     :     0.000582
      f-3     :     0.000564
  6 C s       :     3.099747  s :     3.099747
      pz      :     0.736057  p :     2.317403
      px      :     0.685941
      py      :     0.895405
      dz2     :     0.074653  d :     0.257766
      dxz     :     0.084533
      dyz     :     0.054440
      dx2y2   :     0.030682
      dxy     :     0.013457
      f0      :     0.006407  f :     0.023969
      f+1     :     0.003999
      f-1     :     0.004632
      f+2     :     0.002902
      f-2     :     0.004147
      f+3     :     0.000846
      f-3     :     0.001034
  7 O s       :     3.838955  s :     3.838955
      pz      :     1.430914  p :     4.572950
      px      :     1.461980
      py      :     1.680056
      dz2     :     0.016564  d :     0.062223
      dxz     :     0.015060
      dyz     :     0.015484
      dx2y2   :     0.007016
      dxy     :     0.008098
      f0      :     0.000965  f :     0.004846
      f+1     :     0.000759
      f-1     :     0.001079
      f+2     :     0.000621
      f-2     :     0.000707
      f+3     :     0.000361
      f-3     :     0.000356
  8 H s       :     0.860705  s :     0.860705
      pz      :     0.008315  p :     0.024371
      px      :     0.010102
      py      :     0.005954
  9 H s       :     0.793743  s :     0.793743
      pz      :     0.015541  p :     0.025961
      px      :     0.004802
      py      :     0.005618
 10 H s       :     0.864685  s :     0.864685
      pz      :     0.006024  p :     0.024518
      px      :     0.013432
      py      :     0.005062
 11 H s       :     0.848178  s :     0.848178
      pz      :     0.004552  p :     0.025429
      px      :     0.006389
      py      :     0.014488
 12 H s       :     0.851524  s :     0.851524
      pz      :     0.009632  p :     0.025047
      px      :     0.009435
      py      :     0.005980
 13 H s       :     0.840323  s :     0.840323
      pz      :     0.004841  p :     0.025515
      px      :     0.006691
      py      :     0.013984
 14 H s       :     0.841459  s :     0.841459
      pz      :     0.009458  p :     0.025404
      px      :     0.009422
      py      :     0.006524
 15 H s       :     0.765958  s :     0.765958
      pz      :     0.014069  p :     0.027058
      px      :     0.004577
      py      :     0.008412
 16 H s       :     0.888815  s :     0.888815
      pz      :     0.003224  p :     0.023994
      px      :     0.003316
      py      :     0.017453


                     *******************************
                     * LOEWDIN POPULATION ANALYSIS *
                     *******************************

----------------------
LOEWDIN ATOMIC CHARGES
----------------------
   0 C :   -0.258991
   1 N :    0.121707
   2 C :   -0.228784
   3 C :   -0.225687
   4 C :   -0.115259
   5 C :   -0.104311
   6 C :   -0.346486
   7 O :   -0.000196
   8 H :    0.109875
   9 H :    0.132044
  10 H :    0.106445
  11 H :    0.135568
  12 H :    0.132614
  13 H :    0.148552
  14 H :    0.149712
  15 H :    0.127306
  16 H :    0.115892

-------------------------------
LOEWDIN REDUCED ORBITAL CHARGES
-------------------------------
  0 C s       :     2.825596  s :     2.825596
      pz      :     1.085049  p :     3.018767
      px      :     1.062860
      py      :     0.870859
      dz2     :     0.051637  d :     0.368071
      dxz     :     0.043131
      dyz     :     0.076800
      dx2y2   :     0.084739
      dxy     :     0.111764
      f0      :     0.005602  f :     0.046557
      f+1     :     0.002221
      f-1     :     0.007157
      f+2     :     0.006553
      f-2     :     0.003378
      f+3     :     0.012963
      f-3     :     0.008683
  1 N s       :     2.885838  s :     2.885838
      pz      :     1.142001  p :     3.650733
      px      :     1.368729
      py      :     1.140003
      dz2     :     0.082267  d :     0.317717
      dxz     :     0.040714
      dyz     :     0.108717
      dx2y2   :     0.045547
      dxy     :     0.040470
      f0      :     0.006011  f :     0.024005
      f+1     :     0.002639
      f-1     :     0.003764
      f+2     :     0.004380
      f-2     :     0.002310
      f+3     :     0.002597
      f-3     :     0.002304
  2 C s       :     2.772533  s :     2.772533
      pz      :     0.907364  p :     2.894705
      px      :     1.003968
      py      :     0.983373
      dz2     :     0.091389  d :     0.501058
      dxz     :     0.152854
      dyz     :     0.091562
      dx2y2   :     0.079250
      dxy     :     0.086002
      f0      :     0.009321  f :     0.060487
      f+1     :     0.011081
      f-1     :     0.009742
      f+2     :     0.007431
      f-2     :     0.011310
      f+3     :     0.005969
      f-3     :     0.005634
  3 C s       :     2.763602  s :     2.763602
      pz      :     0.990743  p :     2.991691
      px      :     0.998659
      py      :     1.002289
      dz2     :     0.085726  d :     0.425760
      dxz     :     0.109960
      dyz     :     0.075572
      dx2y2   :     0.073656
      dxy     :     0.080846
      f0      :     0.007082  f :     0.044635
      f+1     :     0.007673
      f-1     :     0.006222
      f+2     :     0.005880
      f-2     :     0.007173
      f+3     :     0.005411
      f-3     :     0.005194
  4 C s       :     2.801634  s :     2.801634
      pz      :     1.067487  p :     2.883705
      px      :     0.868720
      py      :     0.947498
      dz2     :     0.114169  d :     0.377803
      dxz     :     0.095658
      dyz     :     0.089036
      dx2y2   :     0.039369
      dxy     :     0.039572
      f0      :     0.011573  f :     0.052116
      f+1     :     0.006522
      f-1     :     0.014996
      f+2     :     0.008439
      f-2     :     0.007474
      f+3     :     0.001492
      f-3     :     0.001619
  5 C s       :     2.881261  s :     2.881261
      pz      :     1.072095  p :     3.004057
      px      :     0.934073
      py      :     0.997890
      dz2     :     0.052667  d :     0.177659
      dxz     :     0.034756
      dyz     :     0.055332
      dx2y2   :     0.017772
      dxy     :     0.017132
      f0      :     0.008565  f :     0.041333
      f+1     :     0.004700
      f-1     :     0.013151
      f+2     :     0.006755
      f-2     :     0.005750
      f+3     :     0.001193
      f-3     :     0.001219
  6 C s       :     2.795452  s :     2.795452
      pz      :     0.946503  p :     2.606896
      px      :     0.692713
      py      :     0.967681
      dz2     :     0.275750  d :     0.818178
      dxz     :     0.213815
      dyz     :     0.218611
      dx2y2   :     0.082510
      dxy     :     0.027492
      f0      :     0.037535  f :     0.125960
      f+1     :     0.015783
      f-1     :     0.024366
      f+2     :     0.019910
      f-2     :     0.023443
      f+3     :     0.001690
      f-3     :     0.003233
  7 O s       :     3.407291  s :     3.407291
      pz      :     1.507417  p :     4.486413
      px      :     1.365559
      py      :     1.613436
      dz2     :     0.031314  d :     0.097559
      dxz     :     0.017125
      dyz     :     0.030770
      dx2y2   :     0.009994
      dxy     :     0.008357
      f0      :     0.002267  f :     0.008933
      f+1     :     0.001114
      f-1     :     0.002641
      f+2     :     0.001229
      f-2     :     0.000873
      f+3     :     0.000388
      f-3     :     0.000422
  8 H s       :     0.825445  s :     0.825445
      pz      :     0.023173  p :     0.064680
      px      :     0.027114
      py      :     0.014394
  9 H s       :     0.798332  s :     0.798332
      pz      :     0.042082  p :     0.069624
      px      :     0.013788
      py      :     0.013754
 10 H s       :     0.828547  s :     0.828547
      pz      :     0.017337  p :     0.065008
      px      :     0.035147
      py      :     0.012524
 11 H s       :     0.800692  s :     0.800692
      pz      :     0.011862  p :     0.063740
      px      :     0.016509
      py      :     0.035370
 12 H s       :     0.804111  s :     0.804111
      pz      :     0.023425  p :     0.063275
      px      :     0.023340
      py      :     0.016510
 13 H s       :     0.788160  s :     0.788160
      pz      :     0.013137  p :     0.063288
      px      :     0.016770
      py      :     0.033382
 14 H s       :     0.787274  s :     0.787274
      pz      :     0.022657  p :     0.063014
      px      :     0.022592
      py      :     0.017764
 15 H s       :     0.798132  s :     0.798132
      pz      :     0.037383  p :     0.074562
      px      :     0.013781
      py      :     0.023399
 16 H s       :     0.825057  s :     0.825057
      pz      :     0.007904  p :     0.059052
      px      :     0.008292
      py      :     0.042856


                      *****************************
                      * MAYER POPULATION ANALYSIS *
                      *****************************

  NA   - Mulliken gross atomic population
  ZA   - Total nuclear charge
  QA   - Mulliken gross atomic charge
  VA   - Mayer's total valence
  BVA  - Mayer's bonded valence
  FA   - Mayer's free valence

  ATOM       NA         ZA         QA         VA         BVA        FA
  0 C      6.2626     6.0000    -0.2626     3.9681     3.6765     0.2916
  1 N      7.1648     7.0000    -0.1648     3.1055     2.6805     0.4251
  2 C      6.1241     6.0000    -0.1241     3.9877     3.6744     0.3134
  3 C      6.2824     6.0000    -0.2824     3.9155     3.6088     0.3067
  4 C      6.1310     6.0000    -0.1310     4.1057     3.6816     0.4241
  5 C      6.0744     6.0000    -0.0744     3.7979     3.3732     0.4247
  6 C      5.6989     6.0000     0.3011     4.2047     3.8746     0.3301
  7 O      8.4790     8.0000    -0.4790     2.2644     1.8080     0.4564
  8 H      0.8851     1.0000     0.1149     0.9723     0.9228     0.0495
  9 H      0.8197     1.0000     0.1803     0.9845     0.9374     0.0471
 10 H      0.8892     1.0000     0.1108     0.9674     0.9175     0.0499
 11 H      0.8736     1.0000     0.1264     0.9843     0.9345     0.0499
 12 H      0.8766     1.0000     0.1234     0.9858     0.9357     0.0501
 13 H      0.8658     1.0000     0.1342     0.9686     0.9183     0.0502
 14 H      0.8669     1.0000     0.1331     0.9778     0.9270     0.0508
 15 H      0.7930     1.0000     0.2070     0.9695     0.9287     0.0408
 16 H      0.9128     1.0000     0.0872     0.9806     0.9280     0.0527

  Mayer bond orders larger than 0.1
B(  0-C ,  1-N ) :   0.8339 B(  0-C ,  8-H ) :   0.9442 B(  0-C ,  9-H ) :   0.9318 
B(  0-C , 10-H ) :   0.9454 B(  1-N ,  2-C ) :   0.8803 B(  1-N ,  6-C ) :   1.1121 
B(  2-C ,  3-C ) :   0.8869 B(  2-C , 11-H ) :   0.9501 B(  2-C , 12-H ) :   0.9574 
B(  3-C ,  4-C ) :   1.0707 B(  3-C ,  5-C ) :  -0.1530 B(  3-C , 13-H ) :   0.9491 
B(  3-C , 14-H ) :   0.9410 B(  4-C ,  5-C ) :   2.6058 B(  5-C , 15-H ) :   0.8860 
B(  6-C ,  7-O ) :   1.7847 B(  6-C , 16-H ) :   0.9485 


                *******************************************
                * RELAXED MP2 DENSITY POPULATION ANALYSIS *
                *******************************************

------------------------------------------------------------------------------
                           ORCA POPULATION ANALYSIS
------------------------------------------------------------------------------
Input electron density              ... dsgdb9nsd_009066.pmp2re
BaseName (.gbw .S,...)              ... dsgdb9nsd_009066

                    ********************************
                    * MULLIKEN POPULATION ANALYSIS *
                    ********************************

-----------------------
MULLIKEN ATOMIC CHARGES
-----------------------
   0 C :   -0.334343
   1 N :   -0.067404
   2 C :   -0.194837
   3 C :   -0.310756
   4 C :   -0.040394
   5 C :   -0.147535
   6 C :    0.142439
   7 O :   -0.360224
   8 H :    0.137573
   9 H :    0.183905
  10 H :    0.134533
  11 H :    0.145645
  12 H :    0.139700
  13 H :    0.149049
  14 H :    0.150842
  15 H :    0.193857
  16 H :    0.077950
Sum of atomic charges:    0.0000000

--------------------------------
MULLIKEN REDUCED ORBITAL CHARGES
--------------------------------
  0 C s       :     3.250387  s :     3.250387
      pz      :     1.130915  p :     2.966197
      px      :     1.058135
      py      :     0.777146
      dz2     :     0.016476  d :     0.107594
      dxz     :     0.016044
      dyz     :     0.022717
      dx2y2   :     0.017567
      dxy     :     0.034791
      f0      :     0.001467  f :     0.010164
      f+1     :     0.000854
      f-1     :     0.001435
      f+2     :     0.001539
      f-2     :     0.000661
      f+3     :     0.002349
      f-3     :     0.001859
  1 N s       :     3.399965  s :     3.399965
      pz      :     1.014646  p :     3.546440
      px      :     1.517853
      py      :     1.013941
      dz2     :     0.025272  d :     0.112410
      dxz     :     0.019130
      dyz     :     0.033637
      dx2y2   :     0.016641
      dxy     :     0.017729
      f0      :     0.001649  f :     0.008589
      f+1     :     0.001148
      f-1     :     0.001441
      f+2     :     0.001323
      f-2     :     0.000847
      f+3     :     0.001013
      f-3     :     0.001168
  2 C s       :     3.201483  s :     3.201483
      pz      :     0.860734  p :     2.836372
      px      :     0.964914
      py      :     1.010724
      dz2     :     0.024078  d :     0.144623
      dxz     :     0.047359
      dyz     :     0.023750
      dx2y2   :     0.021077
      dxy     :     0.028358
      f0      :     0.001658  f :     0.012359
      f+1     :     0.002093
      f-1     :     0.001987
      f+2     :     0.001860
      f-2     :     0.002181
      f+3     :     0.001318
      f-3     :     0.001263
  3 C s       :     3.246113  s :     3.246113
      pz      :     0.943261  p :     2.933347
      px      :     0.967699
      py      :     1.022387
      dz2     :     0.025427  d :     0.121755
      dxz     :     0.030028
      dyz     :     0.021659
      dx2y2   :     0.019973
      dxy     :     0.024667
      f0      :     0.001201  f :     0.009542
      f+1     :     0.001458
      f-1     :     0.001458
      f+2     :     0.001538
      f-2     :     0.001470
      f+3     :     0.001241
      f-3     :     0.001175
  4 C s       :     3.264086  s :     3.264086
      pz      :     0.792155  p :     2.649930
      px      :     0.957000
      py      :     0.900775
      dz2     :     0.032451  d :     0.111770
      dxz     :     0.026143
      dyz     :     0.025760
      dx2y2   :     0.014320
      dxy     :     0.013095
      f0      :     0.003728  f :     0.014608
      f+1     :     0.002367
      f-1     :     0.002341
      f+2     :     0.002083
      f-2     :     0.002678
      f+3     :     0.000724
      f-3     :     0.000687
  5 C s       :     3.064832  s :     3.064832
      pz      :     1.033325  p :     3.039792
      px      :     0.991817
      py      :     1.014650
      dz2     :     0.006951  d :     0.032398
      dxz     :     0.008762
      dyz     :     0.004374
      dx2y2   :     0.005799
      dxy     :     0.006510
      f0      :     0.002389  f :     0.010513
      f+1     :     0.001477
      f-1     :     0.002273
      f+2     :     0.001577
      f-2     :     0.001699
      f+3     :     0.000555
      f-3     :     0.000543
  6 C s       :     3.124530  s :     3.124530
      pz      :     0.749516  p :     2.468945
      px      :     0.812691
      py      :     0.906737
      dz2     :     0.072428  d :     0.241818
      dxz     :     0.074612
      dyz     :     0.054211
      dx2y2   :     0.029202
      dxy     :     0.011364
      f0      :     0.006194  f :     0.022269
      f+1     :     0.003388
      f-1     :     0.004404
      f+2     :     0.002769
      f-2     :     0.003666
      f+3     :     0.000840
      f-3     :     0.001008
  7 O s       :     3.818799  s :     3.818799
      pz      :     1.428832  p :     4.477206
      px      :     1.406852
      py      :     1.641522
      dz2     :     0.015860  d :     0.059504
      dxz     :     0.014363
      dyz     :     0.014327
      dx2y2   :     0.007149
      dxy     :     0.007806
      f0      :     0.000958  f :     0.004714
      f+1     :     0.000752
      f-1     :     0.000982
      f+2     :     0.000610
      f-2     :     0.000700
      f+3     :     0.000357
      f-3     :     0.000356
  8 H s       :     0.838993  s :     0.838993
      pz      :     0.008022  p :     0.023434
      px      :     0.009467
      py      :     0.005945
  9 H s       :     0.791062  s :     0.791062
      pz      :     0.014255  p :     0.025033
      px      :     0.005064
      py      :     0.005713
 10 H s       :     0.841868  s :     0.841868
      pz      :     0.006125  p :     0.023599
      px      :     0.012285
      py      :     0.005189
 11 H s       :     0.829986  s :     0.829986
      pz      :     0.004781  p :     0.024370
      px      :     0.006375
      py      :     0.013214
 12 H s       :     0.836421  s :     0.836421
      pz      :     0.009048  p :     0.023879
      px      :     0.008920
      py      :     0.005911
 13 H s       :     0.826580  s :     0.826580
      pz      :     0.005074  p :     0.024371
      px      :     0.006651
      py      :     0.012645
 14 H s       :     0.824915  s :     0.824915
      pz      :     0.008846  p :     0.024243
      px      :     0.008921
      py      :     0.006475
 15 H s       :     0.780502  s :     0.780502
      pz      :     0.012760  p :     0.025642
      px      :     0.004854
      py      :     0.008027
 16 H s       :     0.899146  s :     0.899146
      pz      :     0.003520  p :     0.022904
      px      :     0.003866
      py      :     0.015517


                     *******************************
                     * LOEWDIN POPULATION ANALYSIS *
                     *******************************

----------------------
LOEWDIN ATOMIC CHARGES
----------------------
   0 C :   -0.286066
   1 N :    0.143908
   2 C :   -0.250069
   3 C :   -0.247005
   4 C :   -0.114890
   5 C :   -0.098692
   6 C :   -0.418592
   7 O :    0.057457
   8 H :    0.119497
   9 H :    0.136970
  10 H :    0.116194
  11 H :    0.144436
  12 H :    0.140119
  13 H :    0.156287
  14 H :    0.158396
  15 H :    0.127831
  16 H :    0.114217

-------------------------------
LOEWDIN REDUCED ORBITAL CHARGES
-------------------------------
  0 C s       :     2.831740  s :     2.831740
      pz      :     1.097835  p :     3.058320
      px      :     1.079886
      py      :     0.880600
      dz2     :     0.048727  d :     0.350811
      dxz     :     0.039400
      dyz     :     0.075995
      dx2y2   :     0.079528
      dxy     :     0.107161
      f0      :     0.005586  f :     0.045195
      f+1     :     0.002133
      f-1     :     0.007002
      f+2     :     0.006533
      f-2     :     0.003303
      f+3     :     0.012111
      f-3     :     0.008525
  1 N s       :     2.895513  s :     2.895513
      pz      :     1.146678  p :     3.610219
      px      :     1.325560
      py      :     1.137981
      dz2     :     0.083505  d :     0.325879
      dxz     :     0.044986
      dyz     :     0.108455
      dx2y2   :     0.046021
      dxy     :     0.042911
      f0      :     0.006181  f :     0.024481
      f+1     :     0.002821
      f-1     :     0.003642
      f+2     :     0.004416
      f-2     :     0.002490
      f+3     :     0.002622
      f-3     :     0.002308
  2 C s       :     2.779311  s :     2.779311
      pz      :     0.913984  p :     2.923438
      px      :     1.013354
      py      :     0.996100
      dz2     :     0.090887  d :     0.488284
      dxz     :     0.148332
      dyz     :     0.088160
      dx2y2   :     0.076312
      dxy     :     0.084593
      f0      :     0.009287  f :     0.059036
      f+1     :     0.010669
      f-1     :     0.009607
      f+2     :     0.007312
      f-2     :     0.010655
      f+3     :     0.005837
      f-3     :     0.005669
  3 C s       :     2.769487  s :     2.769487
      pz      :     1.002109  p :     3.016773
      px      :     1.001354
      py      :     1.013310
      dz2     :     0.084635  d :     0.416096
      dxz     :     0.109240
      dyz     :     0.070832
      dx2y2   :     0.071082
      dxy     :     0.080307
      f0      :     0.007274  f :     0.044648
      f+1     :     0.007824
      f-1     :     0.005887
      f+2     :     0.005815
      f-2     :     0.007233
      f+3     :     0.005383
      f-3     :     0.005231
  4 C s       :     2.804381  s :     2.804381
      pz      :     1.062354  p :     2.891859
      px      :     0.876545
      py      :     0.952960
      dz2     :     0.110557  d :     0.366013
      dxz     :     0.091835
      dyz     :     0.087373
      dx2y2   :     0.038056
      dxy     :     0.038192
      f0      :     0.011572  f :     0.052637
      f+1     :     0.006448
      f-1     :     0.015486
      f+2     :     0.008555
      f-2     :     0.007473
      f+3     :     0.001491
      f-3     :     0.001612
  5 C s       :     2.888239  s :     2.888239
      pz      :     1.068714  p :     3.001989
      px      :     0.937349
      py      :     0.995926
      dz2     :     0.049241  d :     0.165957
      dxz     :     0.030959
      dyz     :     0.053488
      dx2y2   :     0.016696
      dxy     :     0.015573
      f0      :     0.008877  f :     0.042506
      f+1     :     0.004813
      f-1     :     0.013501
      f+2     :     0.006960
      f-2     :     0.005890
      f+3     :     0.001215
      f-3     :     0.001250
  6 C s       :     2.799835  s :     2.799835
      pz      :     0.939172  p :     2.695976
      px      :     0.787038
      py      :     0.969765
      dz2     :     0.278956  d :     0.804080
      dxz     :     0.201890
      dyz     :     0.221930
      dx2y2   :     0.079143
      dxy     :     0.022161
      f0      :     0.034943  f :     0.118701
      f+1     :     0.012771
      f-1     :     0.024111
      f+2     :     0.019534
      f-2     :     0.022721
      f+3     :     0.001544
      f-3     :     0.003077
  7 O s       :     3.409014  s :     3.409014
      pz      :     1.503841  p :     4.425624
      px      :     1.329098
      py      :     1.592685
      dz2     :     0.030964  d :     0.098757
      dxz     :     0.019044
      dyz     :     0.029841
      dx2y2   :     0.010169
      dxy     :     0.008740
      f0      :     0.002279  f :     0.009148
      f+1     :     0.001275
      f-1     :     0.002570
      f+2     :     0.001220
      f-2     :     0.000987
      f+3     :     0.000396
      f-3     :     0.000420
  8 H s       :     0.814700  s :     0.814700
      pz      :     0.023585  p :     0.065803
      px      :     0.027223
      py      :     0.014994
  9 H s       :     0.792610  s :     0.792610
      pz      :     0.041737  p :     0.070420
      px      :     0.014394
      py      :     0.014289
 10 H s       :     0.817629  s :     0.817629
      pz      :     0.017895  p :     0.066176
      px      :     0.035087
      py      :     0.013195
 11 H s       :     0.790657  s :     0.790657
      pz      :     0.012545  p :     0.064907
      px      :     0.016920
      py      :     0.035441
 12 H s       :     0.795648  s :     0.795648
      pz      :     0.023746  p :     0.064233
      px      :     0.023500
      py      :     0.016987
 13 H s       :     0.779664  s :     0.779664
      pz      :     0.013879  p :     0.064049
      px      :     0.017134
      py      :     0.033035
 14 H s       :     0.777724  s :     0.777724
      pz      :     0.022876  p :     0.063880
      px      :     0.022747
      py      :     0.018256
 15 H s       :     0.798100  s :     0.798100
      pz      :     0.036102  p :     0.074069
      px      :     0.014637
      py      :     0.023330
 16 H s       :     0.825303  s :     0.825303
      pz      :     0.008619  p :     0.060481
      px      :     0.010019
      py      :     0.041842


                      *****************************
                      * MAYER POPULATION ANALYSIS *
                      *****************************

  NA   - Mulliken gross atomic population
  ZA   - Total nuclear charge
  QA   - Mulliken gross atomic charge
  VA   - Mayer's total valence
  BVA  - Mayer's bonded valence
  FA   - Mayer's free valence

  ATOM       NA         ZA         QA         VA         BVA        FA
  0 C      6.3343     6.0000    -0.3343     3.9594     3.6703     0.2891
  1 N      7.0674     7.0000    -0.0674     3.2261     2.8146     0.4115
  2 C      6.1948     6.0000    -0.1948     4.0014     3.6922     0.3092
  3 C      6.3108     6.0000    -0.3108     3.9290     3.6245     0.3046
  4 C      6.0404     6.0000    -0.0404     4.1100     3.6980     0.4120
  5 C      6.1475     6.0000    -0.1475     3.9230     3.5036     0.4193
  6 C      5.8576     6.0000     0.1424     4.3137     4.0050     0.3087
  7 O      8.3602     8.0000    -0.3602     2.4240     1.9853     0.4387
  8 H      0.8624     1.0000     0.1376     0.9661     0.9178     0.0483
  9 H      0.8161     1.0000     0.1839     0.9928     0.9470     0.0457
 10 H      0.8655     1.0000     0.1345     0.9605     0.9119     0.0486
 11 H      0.8544     1.0000     0.1456     0.9779     0.9293     0.0486
 12 H      0.8603     1.0000     0.1397     0.9765     0.9275     0.0490
 13 H      0.8510     1.0000     0.1490     0.9610     0.9116     0.0494
 14 H      0.8492     1.0000     0.1508     0.9711     0.9214     0.0497
 15 H      0.8061     1.0000     0.1939     0.9723     0.9316     0.0407
 16 H      0.9220     1.0000     0.0780     0.9765     0.9267     0.0498

  Mayer bond orders larger than 0.1
B(  0-C ,  1-N ) :   0.8657 B(  0-C ,  8-H ) :   0.9314 B(  0-C ,  9-H ) :   0.9186 
B(  0-C , 10-H ) :   0.9324 B(  1-N ,  2-C ) :   0.9135 B(  1-N ,  6-C ) :   1.1344 
B(  2-C ,  3-C ) :   0.8845 B(  2-C , 11-H ) :   0.9322 B(  2-C , 12-H ) :   0.9397 
B(  3-C ,  4-C ) :   1.0595 B(  3-C , 13-H ) :   0.9314 B(  3-C , 14-H ) :   0.9223 
B(  4-C ,  5-C ) :   2.6290 B(  5-C , 15-H ) :   0.8997 B(  6-C ,  7-O ) :   1.8992 
B(  6-C , 16-H ) :   0.9277 


-------
TIMINGS
-------

Total time                :  495.917 sec
Integral trafo            :    4.030 sec (  0.8%)
FC preparation            :    1.986 sec (  0.4%)
I/O of integrals          :    0.036 sec (  0.0%)
K(i,j) Operators          :    4.987 sec (  1.0%)
T(i,j) pair energies      :    0.513 sec (  0.1%)
V-calculation             :    0.015 sec (  0.0%)
V**(-1/2)                 :    0.084 sec (  0.0%)
Gamma(ia|P)               :    4.908 sec (  1.0%)
Gamma-Trafo               :    0.899 sec (  0.2%)
D(virtual)                :    1.867 sec (  0.4%)
D(internal)               :    1.634 sec (  0.3%)
W(virtual)                :    0.000 sec (  0.0%)
W(internal)               :    0.000 sec (  0.0%)
L(virtual)                :    6.198 sec (  1.2%)
L(internal)               :    0.119 sec (  0.0%)
G(D)                      :   58.767 sec ( 11.9%)
G(Z)                      :    0.000 sec (  0.0%)
Z-Vector Solution         :  409.375 sec ( 82.5%)
3-Index Derivative        :    0.000 sec (  0.0%)
2-Index Derivative        :    0.000 sec (  0.0%)
Separable Gradient (RIJ)  :    0.000 sec (  0.0%)
Separable Gradient (X)    :    0.000 sec (  0.0%)


---------------------------------------
MP2 TOTAL ENERGY:     -363.220745586 Eh
---------------------------------------

-------------------------   --------------------
FINAL SINGLE POINT ENERGY      -363.220745585671
-------------------------   --------------------


                            ***************************************
                            *     ORCA property calculations      *
                            ***************************************

                                    ---------------------
                                    Active property flags
                                    ---------------------
   (+) Dipole Moment


------------------------------------------------------------------------------
                       ORCA ELECTRIC PROPERTIES CALCULATION
------------------------------------------------------------------------------

Dipole Moment Calculation                       ... on
Quadrupole Moment Calculation                   ... off
Polarizability Calculation                      ... off
GBWName                                         ... dsgdb9nsd_009066.gbw
Electron density file                           ... dsgdb9nsd_009066.scfp.tmp

-------------
DIPOLE MOMENT
-------------
                                X             Y             Z
Electronic contribution:      0.12557      -2.47099      -1.85060
Nuclear contribution   :     -0.19116       2.30044       3.26201
                        -----------------------------------------
Total Dipole Moment    :     -0.06559      -0.17055       1.41140
                        -----------------------------------------
Magnitude (a.u.)       :      1.42318
Magnitude (Debye)      :      3.61744


                         *** MP2 UNRELAXED DENSITY ***

------------------------------------------------------------------------------
                       ORCA ELECTRIC PROPERTIES CALCULATION
------------------------------------------------------------------------------

Dipole Moment Calculation                       ... on
Quadrupole Moment Calculation                   ... off
Polarizability Calculation                      ... off
GBWName                                         ... dsgdb9nsd_009066.gbw
Electron density file                           ... dsgdb9nsd_009066.pmp2ur

-------------
DIPOLE MOMENT
-------------
                                X             Y             Z
Electronic contribution:      0.12539      -2.44199      -1.88479
Nuclear contribution   :     -0.19116       2.30044       3.26201
                        -----------------------------------------
Total Dipole Moment    :     -0.06577      -0.14155       1.37722
                        -----------------------------------------
Magnitude (a.u.)       :      1.38603
Magnitude (Debye)      :      3.52302


                           *** MP2 RELAXED DENSITY ***

------------------------------------------------------------------------------
                       ORCA ELECTRIC PROPERTIES CALCULATION
------------------------------------------------------------------------------

Dipole Moment Calculation                       ... on
Quadrupole Moment Calculation                   ... off
Polarizability Calculation                      ... off
GBWName                                         ... dsgdb9nsd_009066.gbw
Electron density file                           ... dsgdb9nsd_009066.pmp2re

-------------
DIPOLE MOMENT
-------------
                                X             Y             Z
Electronic contribution:      0.10999      -2.34617      -1.93927
Nuclear contribution   :     -0.19116       2.30044       3.26201
                        -----------------------------------------
Total Dipole Moment    :     -0.08116      -0.04573       1.32274
                        -----------------------------------------
Magnitude (a.u.)       :      1.32601
Magnitude (Debye)      :      3.37046


Timings for individual modules:

Sum of individual times         ...      600.378 sec (=  10.006 min)
GTO integral calculation        ...        0.679 sec (=   0.011 min)   0.1 %
SCF iterations                  ...      103.643 sec (=   1.727 min)  17.3 %
MP2 module                      ...      496.056 sec (=   8.268 min)  82.6 %
                             ****ORCA TERMINATED NORMALLY****
TOTAL RUN TIME: 0 days 0 hours 10 minutes 0 seconds 827 msec
