
                                 *****************
                                 * O   R   C   A *
                                 *****************

           --- An Ab Initio, DFT and Semiempirical electronic structure package ---

                  #######################################################
                  #                        -***-                        #
                  #  Department of molecular theory and spectroscopy    #
                  #              Directorship: Frank Neese              #
                  # Max Planck Institute for Chemical Energy Conversion #
                  #                  D-45470 Muelheim/Ruhr              #
                  #                       Germany                       #
                  #                                                     #
                  #                  All rights reserved                #
                  #                        -***-                        #
                  #######################################################


                         Program Version 3.0.3 - RELEASE   -


 With contributions from (in alphabetic order):
   Ute Becker             : Parallelization
   Dmytro Bykov           : SCF Hessian
   Dmitry Ganyushin       : Spin-Orbit,Spin-Spin,Magnetic field MRCI
   Andreas Hansen         : Spin unrestricted coupled pair/coupled cluster methods
   Dimitrios Liakos       : Extrapolation schemes; parallel MDCI
   Robert Izsak           : Overlap fitted RIJCOSX, COSX-SCS-MP3
   Christian Kollmar      : KDIIS, OOCD, Brueckner-CCSD(T), CCSD density
   Simone Kossmann        : Meta GGA functionals, TD-DFT gradient, OOMP2, MP2 Hessian
   Taras Petrenko         : DFT Hessian,TD-DFT gradient, ASA and ECA modules, normal mode analysis, Resonance Raman, ABS, FL, XAS/XES, NRVS
   Christoph Reimann      : Effective Core Potentials
   Michael Roemelt        : Restricted open shell CIS
   Christoph Riplinger    : Improved optimizer, TS searches, QM/MM, DLPNO-CCSD
   Barbara Sandhoefer     : DKH picture change effects
   Igor Schapiro          : Molecular dynamics
   Kantharuban Sivalingam : CASSCF convergence, NEVPT2
   Boris Wezisla          : Elementary symmetry handling
   Frank Wennmohs         : Technical directorship


 We gratefully acknowledge several colleagues who have allowed us to
 interface, adapt or use parts of their codes:
   Stefan Grimme, W. Hujo, H. Kruse, T. Risthaus : VdW corrections, initial TS optimization,
                                                   DFT functionals, gCP
   Ed Valeev                                     : LibInt (2-el integral package), F12 methods
   Garnet Chan, S. Sharma, R. Olivares           : DMRG
   Ulf Ekstrom                                   : XCFun DFT Library
   Mihaly Kallay                                 : mrcc  (arbitrary order and MRCC methods)
   Andreas Klamt, Michael Diedenhofen            : otool_cosmo (COSMO solvation model)
   Frank Weinhold                                : gennbo (NPA and NBO analysis)
   Christopher J. Cramer and Donald G. Truhlar   : smd solvation model


 Your calculation uses the libint2 library for the computation of 2-el integrals
 For citations please refer to: http://libint.valeyev.net

 This ORCA versions uses:
   CBLAS   interface :  Fast vector & matrix operations
   LAPACKE interface :  Fast linear algebra routines
   SCALAPACK package :  Parallel linear algebra routines


Your calculation utilizes the basis: Ahlrichs-TZV
Cite in your paper:
H - Kr: A. Schaefer, H. Horn and R. Ahlrichs, J. Chem. Phys. 97, 2571 (1992).

The def2-TZV basis will be loaded
Cite in your paper:
 	F. Weigend, R. Ahlrichs, Phys. Chem. Chem. Phys. 2005, 7, 3297.

================================================================================
                                        WARNINGS
                       Please study these warnings very carefully!
================================================================================
Now building the actual basis set


INFO   : the flag for use of LIBINT has been found!

================================================================================
                                       INPUT FILE
================================================================================
NAME = dsgdb9nsd_069668.inp
|  1> ! RI-MP2 RIJK def2-TZVP def2-TZVP/C def2-TZVP/JK TIGHTSCF
|  2> % maxcore 2000
|  3> % mp2 density relaxed end
|  4> *xyz 0 1
|  5>  C       -0.0295242647     1.5476024384     0.2791974097 
|  6>  C        0.1178383747     0.0933012082    -0.0268036447 
|  7>  O       -0.8521895455    -0.8141893483     0.4996960881 
|  8>  C        0.5363517483    -1.0769660173     0.7998546719 
|  9>  C        1.0040249647    -1.8030904563    -0.4430591140 
| 10>  C        0.8472794222    -2.8743900292    -1.2072856074 
| 11>  C        0.5679635130    -2.3665555808    -2.6212180245 
| 12>  O        0.2619316533    -0.9614570607    -2.4845989174 
| 13>  C        0.8352643671    -0.5583641772    -1.2632017886 
| 14>  H        0.8967894584     2.0868159244     0.0579631947 
| 15>  H       -0.8286924277     1.9861288519    -0.3283950108 
| 16>  H       -0.2826524172     1.6964265505     1.3323840343 
| 17>  H        0.8232035157    -1.1482517408     1.8410807246 
| 18>  H        0.7767653249    -3.9187951892    -0.9324593360 
| 19>  H        1.4169460988    -2.5019480195    -3.3109331337 
| 20>  H       -0.3019804493    -2.8698879037    -3.0606961628 
| 21>  H        1.7743527733     0.0010242095    -1.4210267534 
| 22> *
| 23> 
| 24>                          ****END OF INPUT****
================================================================================

                       ****************************
                       * Single Point Calculation *
                       ****************************

---------------------------------
CARTESIAN COORDINATES (ANGSTROEM)
---------------------------------
  C     -0.029524    1.547602    0.279197
  C      0.117838    0.093301   -0.026804
  O     -0.852190   -0.814189    0.499696
  C      0.536352   -1.076966    0.799855
  C      1.004025   -1.803090   -0.443059
  C      0.847279   -2.874390   -1.207286
  C      0.567964   -2.366556   -2.621218
  O      0.261932   -0.961457   -2.484599
  C      0.835264   -0.558364   -1.263202
  H      0.896789    2.086816    0.057963
  H     -0.828692    1.986129   -0.328395
  H     -0.282652    1.696427    1.332384
  H      0.823204   -1.148252    1.841081
  H      0.776765   -3.918795   -0.932459
  H      1.416946   -2.501948   -3.310933
  H     -0.301980   -2.869888   -3.060696
  H      1.774353    0.001024   -1.421027

----------------------------
CARTESIAN COORDINATES (A.U.)
----------------------------
  NO LB      ZA    FRAG    MASS        X           Y           Z
   0 C     6.0000    0    12.011         -0.055792774588399          2.924544772764734          0.527606641633209
   1 C     6.0000    0    12.011          0.222682256249395          0.176313731461968         -0.050651547873930
   2 O     8.0000    0    15.999         -1.610404855185824         -1.538594889442823          0.944288756700786
   3 C     6.0000    0    12.011          1.013557915736863         -2.035170828236897          1.511506276828438
   4 C     6.0000    0    12.011          1.897332214902952         -3.407347157094105         -0.837260386597795
   5 C     6.0000    0    12.011          1.601126066865038         -5.431809957261910         -2.281439163410772
   6 C     6.0000    0    12.011          1.073295493629823         -4.472141928414946         -4.953384203603086
   7 O     8.0000    0    15.999          0.494979090542211         -1.816890534247901         -4.695211506523229
   8 C     6.0000    0    12.011          1.578420903242064         -1.055155377900277         -2.387105432333488
   9 H     1.0000    0     1.008          1.694686476163565          3.943510589021715          0.109534563830156
  10 H     1.0000    0     1.008         -1.566001737607337          3.753239596770441         -0.620576634158112
  11 H     1.0000    0     1.008         -0.534135659598853          3.205781586757730          2.517840930036139
  12 H     1.0000    0     1.008          1.555629197154144         -2.169881322910331          3.479138359935295
  13 H     1.0000    0     1.008          1.467873734387362         -7.405449682516116         -1.762092776058057
  14 H     1.0000    0     1.008          2.677640073260124         -4.727996558161667         -6.256756870418675
  15 H     1.0000    0     1.008         -0.570660346975492         -5.423302173046366         -5.783877526835654
  16 H     1.0000    0     1.008          3.353040806500660          0.001935475458760         -2.685351392901250

--------------------------------
INTERNAL COORDINATES (ANGSTROEM)
--------------------------------
 C      0   0   0   0.000000     0.000     0.000
 C      1   0   0   1.493434     0.000     0.000
 O      2   1   0   1.428879   118.423     0.000
 C      3   2   1   1.444712    62.587   234.934
 C      4   3   2   1.513542   102.335   277.241
 C      5   4   3   1.325252   145.571   298.395
 C      6   5   4   1.528109   106.652   124.598
 O      7   6   5   1.444514   105.931   346.141
 C      8   7   6   1.408192   105.915    22.050
 H      1   2   3   1.094419   110.784   164.703
 H      1   2   3   1.095511   110.374   284.208
 H      1   2   3   1.093355   110.657    43.839
 H      4   3   2   1.082367   117.812   123.310
 H      6   5   4   1.082259   129.894   312.797
 H      7   6   5   1.102184   113.416   106.873
 H      7   6   5   1.096944   111.295   228.483
 H      9   8   7   1.104405   111.545   102.810

---------------------------
INTERNAL COORDINATES (A.U.)
---------------------------
 C      0   0   0   0.000000     0.000     0.000
 C      1   0   0   2.822181     0.000     0.000
 O      2   1   0   2.700190   118.423     0.000
 C      3   2   1   2.730111    62.587   234.934
 C      4   3   2   2.860180   102.335   277.241
 C      5   4   3   2.504364   145.571   298.395
 C      6   5   4   2.887708   106.652   124.598
 O      7   6   5   2.729737   105.931   346.141
 C      8   7   6   2.661098   105.915    22.050
 H      1   2   3   2.068152   110.784   164.703
 H      1   2   3   2.070215   110.374   284.208
 H      1   2   3   2.066141   110.657    43.839
 H      4   3   2   2.045376   117.812   123.310
 H      6   5   4   2.045173   129.894   312.797
 H      7   6   5   2.082826   113.416   106.873
 H      7   6   5   2.072924   111.295   228.483
 H      9   8   7   2.087024   111.545   102.810

---------------------
BASIS SET INFORMATION
---------------------
There are 3 groups of distinct atoms

 Group   1 Type C   : 11s6p2d1f contracted to 5s3p2d1f pattern {62111/411/11/1}
 Group   2 Type O   : 11s6p2d1f contracted to 5s3p2d1f pattern {62111/411/11/1}
 Group   3 Type H   : 5s1p contracted to 3s1p pattern {311/1}

Atom   0C    basis set group =>   1
Atom   1C    basis set group =>   1
Atom   2O    basis set group =>   2
Atom   3C    basis set group =>   1
Atom   4C    basis set group =>   1
Atom   5C    basis set group =>   1
Atom   6C    basis set group =>   1
Atom   7O    basis set group =>   2
Atom   8C    basis set group =>   1
Atom   9H    basis set group =>   3
Atom  10H    basis set group =>   3
Atom  11H    basis set group =>   3
Atom  12H    basis set group =>   3
Atom  13H    basis set group =>   3
Atom  14H    basis set group =>   3
Atom  15H    basis set group =>   3
Atom  16H    basis set group =>   3
-------------------------------
AUXILIARY BASIS SET INFORMATION
-------------------------------
There are 3 groups of distinct atoms

 Group   1 Type C   : 14s10p6d2f1g contracted to 10s8p5d1f1g pattern {5111111111/31111111/21111/2/1}
 Group   2 Type O   : 14s10p6d2f1g contracted to 10s8p4d2f1g pattern {5111111111/31111111/3111/11/1}
 Group   3 Type H   : 4s2p2d contracted to 2s2p2d pattern {31/11/11}

Atom   0C    basis set group =>   1
Atom   1C    basis set group =>   1
Atom   2O    basis set group =>   2
Atom   3C    basis set group =>   1
Atom   4C    basis set group =>   1
Atom   5C    basis set group =>   1
Atom   6C    basis set group =>   1
Atom   7O    basis set group =>   2
Atom   8C    basis set group =>   1
Atom   9H    basis set group =>   3
Atom  10H    basis set group =>   3
Atom  11H    basis set group =>   3
Atom  12H    basis set group =>   3
Atom  13H    basis set group =>   3
Atom  14H    basis set group =>   3
Atom  15H    basis set group =>   3
Atom  16H    basis set group =>   3
------------------------------------------------------------------------------
                           ORCA GTO INTEGRAL CALCULATION
                           -- RI-GTO INTEGRALS CHOSEN --
------------------------------------------------------------------------------

                         BASIS SET STATISTICS AND STARTUP INFO

Gaussian basis set:
 # of primitive gaussian shells          ...  228
 # of primitive gaussian functions       ...  478
 # of contracted shells                  ...  131
 # of contracted basis functions         ...  327
 Highest angular momentum                ...    3
 Maximum contraction depth               ...    6
Auxiliary gaussian basis set:
 # of primitive gaussian shells          ...  361
 # of primitive gaussian functions       ... 1033
 # of contracted shells                  ...  273
 # of contracted aux-basis functions     ...  823
 Highest angular momentum                ...    4
 Maximum contraction depth               ...    5
Ratio of auxiliary to basis functions    ...  2.52
Integral package used                  ... LIBINT
 One Electron integrals                  ... done
 Ordering auxiliary basis shells         ... done
 Integral threshhold             Thresh  ...  2.500e-11
 Primitive cut-off               TCut    ...  2.500e-12
 Pre-screening matrix                    ... done
 Shell pair data                         ... 
 Ordering of the shell pairs             ... done (   0.001 sec) 7976 of 8646 pairs
 Determination of significant pairs      ... done (   0.000 sec)
 Creation of shell pair data             ... done (   0.002 sec)
 Storage of shell pair data              ... done (   0.001 sec)
 Shell pair data done in (   0.005 sec)
 Computing two index integrals           ... done
 Cholesky decomposition of the V-matrix  ... done


Timings:
 Total evaluation time                   ...   0.371 sec (  0.006 min)
 One electron matrix time                ...   0.082 sec (  0.001 min) = 22.1%
 Schwartz matrix evaluation time         ...   0.205 sec (  0.003 min) = 55.2%
 Two index repulsion integral time       ...   0.021 sec (  0.000 min) =  5.7%
 Cholesky decomposition of V             ...   0.030 sec (  0.001 min) =  8.2%
 Three index repulsion integral time     ...   0.000 sec (  0.000 min) =  0.0%

-------------------------------------------------------------------------------
                                 ORCA SCF
-------------------------------------------------------------------------------

------------
SCF SETTINGS
------------
Hamiltonian:
 Ab initio Hamiltonian  Method          .... Hartree-Fock(GTOs)
 RI-approximation to the Coulomb term is turned on
   Number of auxiliary basis functions  .... 823
   RI-JK (J+K treated both via RI)      .... on


General Settings:
 Integral files         IntName         .... dsgdb9nsd_069668
 Hartree-Fock type      HFTyp           .... RHF
 Total Charge           Charge          ....    0
 Multiplicity           Mult            ....    1
 Number of Electrons    NEL             ....   66
 Basis Dimension        Dim             ....  327
 Nuclear Repulsion      ENuc            ....    452.6874148733 Eh

Convergence Acceleration:
 DIIS                   CNVDIIS         .... on
   Start iteration      DIISMaxIt       ....    12
   Startup error        DIISStart       ....  0.200000
   # of expansion vecs  DIISMaxEq       ....     5
   Bias factor          DIISBfac        ....   1.050
   Max. coefficient     DIISMaxC        ....  10.000
 Newton-Raphson         CNVNR           .... off
 SOSCF                  CNVSOSCF        .... on
   Start iteration      SOSCFMaxIt      ....   150
   Startup grad/error   SOSCFStart      ....  0.003300
 Level Shifting         CNVShift        .... on
   Level shift para.    LevelShift      ....    0.2500
   Turn off err/grad.   ShiftErr        ....    0.0010
 Zerner damping         CNVZerner       .... off
 Static damping         CNVDamp         .... on
   Fraction old density DampFac         ....    0.7000
   Max. Damping (<1)    DampMax         ....    0.9800
   Min. Damping (>=0)   DampMin         ....    0.0000
   Turn off err/grad.   DampErr         ....    0.1000
 Fernandez-Rico         CNVRico         .... off

SCF Procedure:
 Maximum # iterations   MaxIter         ....   125
 SCF integral mode      SCFMode         .... Direct
   Integral package                     .... LIBINT
 Reset frequeny         DirectResetFreq ....    20
 Integral Threshold     Thresh          ....  2.500e-11 Eh
 Primitive CutOff       TCut            ....  2.500e-12 Eh

Convergence Tolerance:
 Convergence Check Mode ConvCheckMode   .... Total+1el-Energy
 Energy Change          TolE            ....  1.000e-08 Eh
 1-El. energy change                    ....  1.000e-05 Eh
 Orbital Gradient       TolG            ....  1.000e-05
 Orbital Rotation angle TolX            ....  1.000e-05
 DIIS Error             TolErr          ....  5.000e-07


Diagonalization of the overlap matrix:
Smallest eigenvalue                        ... 2.760e-05
Time for diagonalization                   ...    0.030 sec
Threshold for overlap eigenvalues          ... 1.000e-08
Number of eigenvalues below threshold      ... 0
Time for construction of square roots      ...    0.015 sec
Total time needed                          ...    0.045 sec

-------------------
DFT GRID GENERATION
-------------------

General Integration Accuracy     IntAcc      ...  4.340
Radial Grid Type                 RadialGrid  ... Gauss-Chebyshev
Angular Grid (max. acc.)         AngularGrid ... Lebedev-110
Angular grid pruning method      GridPruning ... 3 (G Style)
Weight generation scheme         WeightScheme... Becke
Basis function cutoff            BFCut       ...    1.0000e-11
Integration weight cutoff        WCut        ...    1.0000e-14
Grids for H and He will be reduced by one unit

# of grid points (after initial pruning)     ...  21376 (   0.0 sec)
# of grid points (after weights+screening)   ...  19702 (   0.1 sec)
nearest neighbour list constructed           ...    0.0 sec
Grid point re-assignment to atoms done       ...    0.0 sec
Grid point division into batches done        ...    0.0 sec
Reduced shell lists constructed in    1.2 sec

Total number of grid points                  ...    19702
Total number of batches                      ...      317
Average number of points per batch           ...       62
Average number of grid points per atom       ...     1159
Average number of shells per batch           ...    88.88 (67.85%)
Average number of basis functions per batch  ...   229.94 (70.32%)
Average number of large shells per batch     ...    69.81 (78.55%)
Average number of large basis fcns per batch ...   178.25 (77.52%)
Average number of aux-shells per batch       ...    88.88 (32.56%)
Average number of aux functions per batch    ...   229.94 (  inf%)
Maximum spatial batch extension              ...  21.13, 20.29, 25.60 au
Average spatial batch extension              ...   3.93,  3.60,  3.93 au

Time for grid setup =    1.284 sec

------------------------------
INITIAL GUESS: MODEL POTENTIAL
------------------------------
Loading Hartree-Fock densities                     ... done
Calculating cut-offs                               ... done
Setting up the integral package                    ... done
Initializing the effective Hamiltonian             ... done
Starting the Coulomb interaction                   ... done (   0.6 sec)
Reading the grid                                   ... done
Mapping shells                                     ... done
Starting the XC term evaluation                    ... done (   0.6 sec)
Transforming the Hamiltonian                       ... done (   0.0 sec)
Diagonalizing the Hamiltonian                      ... done (   0.0 sec)
Back transforming the eigenvectors                 ... done (   0.0 sec)
Now organizing SCF variables                       ... done
                      ------------------
                      INITIAL GUESS DONE (   2.7 sec)
                      ------------------
--------------
SCF ITERATIONS
--------------
ITER       Energy         Delta-E        Max-DP      RMS-DP      [F,P]     Damp
  0   -419.1362270209   0.000000000000 0.03297836  0.00090217  0.2979729 0.7000
  1   -419.0337761446   0.102450876275 0.05262492  0.00093479  0.2488679 0.7000
                               ***Turning on DIIS***
  2   -419.0702315447  -0.036455400140 0.03465567  0.00066523  0.1811062 0.7000
  3   -420.1988689770  -1.128637432254 0.01517807  0.00038890  0.1266936 0.7000
  4   -419.5578768679   0.640992109145 0.04816878  0.00105272  0.0838638 0.0000
  5   -419.5590039004  -0.001127032505 0.00868938  0.00020138  0.0247027 0.0000
  6   -419.4108673772   0.148136523191 0.00473761  0.00009523  0.0071393 0.0000
  7   -419.4248270737  -0.013959696582 0.00237392  0.00005140  0.0048590 0.0000
                      *** Initiating the SOSCF procedure ***
                           *** Shutting down DIIS ***
                      *** Re-Reading the Fockian *** 
                      *** Removing any level shift *** 
ITER      Energy       Delta-E        Grad      Rot      Max-DP    RMS-DP
  8   -419.41284419   0.0119828848  0.000799  0.000799  0.002115  0.000043
  9   -419.46080230  -0.0479581124  0.000091  0.000144  0.000791  0.000014
 10   -419.46080336  -0.0000010544  0.000058  0.000082  0.000628  0.000008
 11   -419.46080360  -0.0000002422  0.000012  0.000016  0.000096  0.000001
 12   -419.46080361  -0.0000000118  0.000004  0.000010  0.000021  0.000000
                  ***Gradient check signals convergence***
              ***Rediagonalizing the Fockian in SOSCF/NRSCF***

               *****************************************************
               *                     SUCCESS                       *
               *           SCF CONVERGED AFTER  13 CYCLES          *
               *****************************************************


----------------
TOTAL SCF ENERGY
----------------

Total Energy       :         -419.46080361 Eh          -11414.10875 eV

Components:
Nuclear Repulsion  :          452.68741487 Eh           12318.25081 eV
Electronic Energy  :         -872.14821848 Eh          -23732.35955 eV

One Electron Energy:        -1469.60768189 Eh          -39990.05808 eV
Two Electron Energy:          597.45946341 Eh           16257.69852 eV

Virial components:
Potential Energy   :         -838.33796694 Eh          -22812.33584 eV
Kinetic Energy     :          418.87716333 Eh           11398.22709 eV
Virial Ratio       :            2.00139334


---------------
SCF CONVERGENCE
---------------

  Last Energy change         ...   -1.8724e-09  Tolerance :   1.0000e-08
  Last MAX-Density change    ...    6.3608e-06  Tolerance :   1.0000e-07
  Last RMS-Density change    ...    1.5357e-07  Tolerance :   5.0000e-09
  Last Orbital Gradient      ...    1.3926e-06  Tolerance :   1.0000e-05
  Last Orbital Rotation      ...    1.7970e-06  Tolerance :   1.0000e-05

             **** THE GBW FILE WAS UPDATED (dsgdb9nsd_069668.gbw) ****
             **** DENSITY FILE WAS UPDATED (dsgdb9nsd_069668.scfp.tmp) ****
             **** ENERGY FILE WAS UPDATED (dsgdb9nsd_069668.en.tmp) ****
----------------
ORBITAL ENERGIES
----------------

  NO   OCC          E(Eh)            E(eV) 
   0   2.0000     -20.575035      -559.8752 
   1   2.0000     -20.558106      -559.4145 
   2   2.0000     -11.306136      -307.6556 
   3   2.0000     -11.303483      -307.5834 
   4   2.0000     -11.287509      -307.1487 
   5   2.0000     -11.287007      -307.1351 
   6   2.0000     -11.243580      -305.9534 
   7   2.0000     -11.239625      -305.8457 
   8   2.0000     -11.232564      -305.6536 
   9   2.0000      -1.427975       -38.8572 
  10   2.0000      -1.378279       -37.5049 
  11   2.0000      -1.104905       -30.0660 
  12   2.0000      -1.040308       -28.3082 
  13   2.0000      -0.995467       -27.0880 
  14   2.0000      -0.899531       -24.4775 
  15   2.0000      -0.858822       -23.3697 
  16   2.0000      -0.768575       -20.9140 
  17   2.0000      -0.751681       -20.4543 
  18   2.0000      -0.698694       -19.0124 
  19   2.0000      -0.664920       -18.0934 
  20   2.0000      -0.646952       -17.6045 
  21   2.0000      -0.613912       -16.7054 
  22   2.0000      -0.595898       -16.2152 
  23   2.0000      -0.583901       -15.8887 
  24   2.0000      -0.570958       -15.5366 
  25   2.0000      -0.536159       -14.5896 
  26   2.0000      -0.524682       -14.2773 
  27   2.0000      -0.519226       -14.1288 
  28   2.0000      -0.506177       -13.7738 
  29   2.0000      -0.440419       -11.9844 
  30   2.0000      -0.428866       -11.6700 
  31   2.0000      -0.405279       -11.0282 
  32   2.0000      -0.349738        -9.5168 
  33   0.0000       0.125329         3.4104 
  34   0.0000       0.141086         3.8392 
  35   0.0000       0.160944         4.3795 
  36   0.0000       0.170367         4.6359 
  37   0.0000       0.182192         4.9577 
  38   0.0000       0.192913         5.2494 
  39   0.0000       0.205534         5.5929 
  40   0.0000       0.212891         5.7931 
  41   0.0000       0.218731         5.9520 
  42   0.0000       0.226317         6.1584 
  43   0.0000       0.244601         6.6559 
  44   0.0000       0.254844         6.9347 
  45   0.0000       0.267919         7.2904 
  46   0.0000       0.277501         7.5512 
  47   0.0000       0.294443         8.0122 
  48   0.0000       0.314821         8.5667 
  49   0.0000       0.316664         8.6169 
  50   0.0000       0.335908         9.1405 
  51   0.0000       0.351768         9.5721 
  52   0.0000       0.356082         9.6895 
  53   0.0000       0.385286        10.4842 
  54   0.0000       0.390508        10.6263 
  55   0.0000       0.398676        10.8485 
  56   0.0000       0.414314        11.2740 
  57   0.0000       0.423293        11.5184 
  58   0.0000       0.426554        11.6071 
  59   0.0000       0.463977        12.6255 
  60   0.0000       0.478981        13.0337 
  61   0.0000       0.484902        13.1949 
  62   0.0000       0.499354        13.5881 
  63   0.0000       0.502307        13.6685 
  64   0.0000       0.520969        14.1763 
  65   0.0000       0.532594        14.4926 
  66   0.0000       0.544319        14.8117 
  67   0.0000       0.545793        14.8518 
  68   0.0000       0.556089        15.1320 
  69   0.0000       0.562320        15.3015 
  70   0.0000       0.578505        15.7419 
  71   0.0000       0.584290        15.8993 
  72   0.0000       0.592988        16.1360 
  73   0.0000       0.596867        16.2416 
  74   0.0000       0.610231        16.6052 
  75   0.0000       0.612374        16.6635 
  76   0.0000       0.628020        17.0893 
  77   0.0000       0.644946        17.5499 
  78   0.0000       0.652929        17.7671 
  79   0.0000       0.660367        17.9695 
  80   0.0000       0.663209        18.0468 
  81   0.0000       0.684210        18.6183 
  82   0.0000       0.694339        18.8939 
  83   0.0000       0.701878        19.0991 
  84   0.0000       0.747928        20.3521 
  85   0.0000       0.754451        20.5297 
  86   0.0000       0.766934        20.8693 
  87   0.0000       0.794624        21.6228 
  88   0.0000       0.808049        21.9881 
  89   0.0000       0.837282        22.7836 
  90   0.0000       0.853043        23.2125 
  91   0.0000       0.860868        23.4254 
  92   0.0000       0.876743        23.8574 
  93   0.0000       0.928661        25.2702 
  94   0.0000       0.936442        25.4819 
  95   0.0000       0.976531        26.5728 
  96   0.0000       0.992631        27.0109 
  97   0.0000       1.008556        27.4442 
  98   0.0000       1.033554        28.1244 
  99   0.0000       1.045364        28.4458 
 100   0.0000       1.051389        28.6098 
 101   0.0000       1.085650        29.5420 
 102   0.0000       1.092289        29.7227 
 103   0.0000       1.127969        30.6936 
 104   0.0000       1.134230        30.8640 
 105   0.0000       1.163566        31.6622 
 106   0.0000       1.175908        31.9981 
 107   0.0000       1.188632        32.3443 
 108   0.0000       1.202250        32.7149 
 109   0.0000       1.235456        33.6185 
 110   0.0000       1.250348        34.0237 
 111   0.0000       1.260270        34.2937 
 112   0.0000       1.282829        34.9076 
 113   0.0000       1.284432        34.9512 
 114   0.0000       1.318217        35.8705 
 115   0.0000       1.328660        36.1547 
 116   0.0000       1.352027        36.7905 
 117   0.0000       1.359172        36.9849 
 118   0.0000       1.375785        37.4370 
 119   0.0000       1.391771        37.8720 
 120   0.0000       1.415632        38.5213 
 121   0.0000       1.430509        38.9261 
 122   0.0000       1.453501        39.5518 
 123   0.0000       1.492698        40.6184 
 124   0.0000       1.518981        41.3336 
 125   0.0000       1.545408        42.0527 
 126   0.0000       1.549576        42.1661 
 127   0.0000       1.579084        42.9691 
 128   0.0000       1.617278        44.0084 
 129   0.0000       1.630274        44.3620 
 130   0.0000       1.659152        45.1478 
 131   0.0000       1.716637        46.7121 
 132   0.0000       1.739713        47.3400 
 133   0.0000       1.754816        47.7510 
 134   0.0000       1.775378        48.3105 
 135   0.0000       1.803158        49.0664 
 136   0.0000       1.804896        49.1137 
 137   0.0000       1.831815        49.8462 
 138   0.0000       1.834815        49.9279 
 139   0.0000       1.855427        50.4887 
 140   0.0000       1.871803        50.9343 
 141   0.0000       1.875939        51.0469 
 142   0.0000       1.888091        51.3776 
 143   0.0000       1.903906        51.8079 
 144   0.0000       1.926513        52.4231 
 145   0.0000       1.958216        53.2858 
 146   0.0000       1.989730        54.1433 
 147   0.0000       2.014096        54.8063 
 148   0.0000       2.034644        55.3655 
 149   0.0000       2.059976        56.0548 
 150   0.0000       2.110449        57.4282 
 151   0.0000       2.132486        58.0279 
 152   0.0000       2.164953        58.9114 
 153   0.0000       2.176929        59.2373 
 154   0.0000       2.187775        59.5324 
 155   0.0000       2.215326        60.2821 
 156   0.0000       2.230844        60.7044 
 157   0.0000       2.239216        60.9322 
 158   0.0000       2.262621        61.5691 
 159   0.0000       2.287331        62.2414 
 160   0.0000       2.308044        62.8051 
 161   0.0000       2.349127        63.9230 
 162   0.0000       2.363201        64.3060 
 163   0.0000       2.384089        64.8744 
 164   0.0000       2.390426        65.0468 
 165   0.0000       2.416657        65.7606 
 166   0.0000       2.434838        66.2553 
 167   0.0000       2.448154        66.6177 
 168   0.0000       2.451718        66.7146 
 169   0.0000       2.495490        67.9057 
 170   0.0000       2.506464        68.2044 
 171   0.0000       2.531032        68.8729 
 172   0.0000       2.534015        68.9540 
 173   0.0000       2.575397        70.0801 
 174   0.0000       2.602966        70.8303 
 175   0.0000       2.620164        71.2983 
 176   0.0000       2.660418        72.3936 
 177   0.0000       2.687545        73.1318 
 178   0.0000       2.693294        73.2883 
 179   0.0000       2.702965        73.5514 
 180   0.0000       2.724853        74.1470 
 181   0.0000       2.759208        75.0819 
 182   0.0000       2.771726        75.4225 
 183   0.0000       2.805628        76.3450 
 184   0.0000       2.818782        76.7030 
 185   0.0000       2.828975        76.9803 
 186   0.0000       2.851535        77.5942 
 187   0.0000       2.863840        77.9290 
 188   0.0000       2.883621        78.4673 
 189   0.0000       2.896132        78.8078 
 190   0.0000       2.902745        78.9877 
 191   0.0000       2.923274        79.5463 
 192   0.0000       2.962665        80.6182 
 193   0.0000       2.966183        80.7139 
 194   0.0000       3.006957        81.8234 
 195   0.0000       3.017004        82.0968 
 196   0.0000       3.033056        82.5337 
 197   0.0000       3.084629        83.9370 
 198   0.0000       3.102396        84.4205 
 199   0.0000       3.118013        84.8455 
 200   0.0000       3.137436        85.3740 
 201   0.0000       3.148323        85.6702 
 202   0.0000       3.156661        85.8971 
 203   0.0000       3.169508        86.2467 
 204   0.0000       3.180417        86.5436 
 205   0.0000       3.220424        87.6322 
 206   0.0000       3.248343        88.3919 
 207   0.0000       3.276337        89.1537 
 208   0.0000       3.292667        89.5980 
 209   0.0000       3.304137        89.9101 
 210   0.0000       3.312600        90.1404 
 211   0.0000       3.324011        90.4509 
 212   0.0000       3.347771        91.0975 
 213   0.0000       3.361965        91.4837 
 214   0.0000       3.380539        91.9891 
 215   0.0000       3.392960        92.3271 
 216   0.0000       3.415782        92.9482 
 217   0.0000       3.424945        93.1975 
 218   0.0000       3.426908        93.2509 
 219   0.0000       3.452649        93.9513 
 220   0.0000       3.483723        94.7969 
 221   0.0000       3.487476        94.8990 
 222   0.0000       3.497962        95.1844 
 223   0.0000       3.522674        95.8568 
 224   0.0000       3.539436        96.3129 
 225   0.0000       3.566421        97.0473 
 226   0.0000       3.581465        97.4566 
 227   0.0000       3.595692        97.8438 
 228   0.0000       3.610618        98.2499 
 229   0.0000       3.625239        98.6478 
 230   0.0000       3.640139        99.0532 
 231   0.0000       3.651606        99.3652 
 232   0.0000       3.672335        99.9293 
 233   0.0000       3.683026       100.2202 
 234   0.0000       3.698022       100.6283 
 235   0.0000       3.711596       100.9977 
 236   0.0000       3.724957       101.3612 
 237   0.0000       3.752935       102.1225 
 238   0.0000       3.777163       102.7818 
 239   0.0000       3.789138       103.1077 
 240   0.0000       3.811213       103.7084 
 241   0.0000       3.837679       104.4286 
 242   0.0000       3.864805       105.1667 
 243   0.0000       3.881958       105.6334 
 244   0.0000       3.898672       106.0883 
 245   0.0000       3.931802       106.9898 
 246   0.0000       3.938404       107.1694 
 247   0.0000       3.964476       107.8789 
 248   0.0000       3.978826       108.2694 
 249   0.0000       3.999928       108.8436 
 250   0.0000       4.039510       109.9207 
 251   0.0000       4.071179       110.7824 
 252   0.0000       4.095521       111.4448 
 253   0.0000       4.126763       112.2949 
 254   0.0000       4.170708       113.4907 
 255   0.0000       4.184257       113.8594 
 256   0.0000       4.192917       114.0951 
 257   0.0000       4.233957       115.2118 
 258   0.0000       4.247301       115.5749 
 259   0.0000       4.265645       116.0741 
 260   0.0000       4.273436       116.2861 
 261   0.0000       4.325159       117.6936 
 262   0.0000       4.398732       119.6956 
 263   0.0000       4.413383       120.0942 
 264   0.0000       4.440922       120.8436 
 265   0.0000       4.494138       122.2917 
 266   0.0000       4.499053       122.4254 
 267   0.0000       4.555328       123.9568 
 268   0.0000       4.572649       124.4281 
 269   0.0000       4.599055       125.1467 
 270   0.0000       4.628353       125.9439 
 271   0.0000       4.652642       126.6048 
 272   0.0000       4.709371       128.1485 
 273   0.0000       4.731723       128.7567 
 274   0.0000       4.760082       129.5284 
 275   0.0000       4.810306       130.8951 
 276   0.0000       4.832173       131.4901 
 277   0.0000       4.886279       132.9624 
 278   0.0000       4.923123       133.9650 
 279   0.0000       4.938100       134.3725 
 280   0.0000       5.012035       136.3844 
 281   0.0000       5.048284       137.3708 
 282   0.0000       5.127881       139.5367 
 283   0.0000       5.171146       140.7140 
 284   0.0000       5.211420       141.8099 
 285   0.0000       5.236837       142.5016 
 286   0.0000       5.299210       144.1988 
 287   0.0000       5.346932       145.4974 
 288   0.0000       5.385231       146.5396 
 289   0.0000       5.417838       147.4269 
 290   0.0000       5.501670       149.7081 
 291   0.0000       5.576033       151.7316 
 292   0.0000       5.636483       153.3765 
 293   0.0000       5.727441       155.8516 
 294   0.0000       5.827477       158.5737 
 295   0.0000       5.902439       160.6135 
 296   0.0000       5.940727       161.6554 
 297   0.0000       6.013356       163.6317 
 298   0.0000       6.192033       168.4938 
 299   0.0000       6.207844       168.9240 
 300   0.0000       6.259372       170.3262 
 301   0.0000       6.301673       171.4772 
 302   0.0000       6.355484       172.9415 
 303   0.0000       6.439795       175.2357 
 304   0.0000       6.488443       176.5595 
 305   0.0000       6.591868       179.3739 
 306   0.0000       6.599488       179.5812 
 307   0.0000       6.689742       182.0371 
 308   0.0000       7.171762       195.1536 
 309   0.0000       7.234468       196.8599 
 310   0.0000       7.281825       198.1485 
 311   0.0000       7.345291       199.8755 
 312   0.0000       7.415482       201.7855 
 313   0.0000       7.444291       202.5695 
 314   0.0000       7.560532       205.7325 
 315   0.0000       7.706286       209.6987 
 316   0.0000       7.755264       211.0315 
 317   0.0000       7.823975       212.9012 
 318   0.0000      23.367710       635.8677 
 319   0.0000      23.441277       637.8696 
 320   0.0000      23.531360       640.3209 
 321   0.0000      23.542391       640.6210 
 322   0.0000      23.811403       647.9412 
 323   0.0000      23.948392       651.6689 
 324   0.0000      24.226842       659.2459 
 325   0.0000      45.726013      1244.2681 
 326   0.0000      45.786668      1245.9186 

                    ********************************
                    * MULLIKEN POPULATION ANALYSIS *
                    ********************************

-----------------------
MULLIKEN ATOMIC CHARGES
-----------------------
   0 C :   -0.348780
   1 C :    0.151769
   2 O :   -0.421008
   3 C :    0.097953
   4 C :   -0.171372
   5 C :   -0.185512
   6 C :    0.105455
   7 O :   -0.439165
   8 C :    0.310954
   9 H :    0.111542
  10 H :    0.126065
  11 H :    0.123801
  12 H :    0.142858
  13 H :    0.139110
  14 H :    0.083309
  15 H :    0.101389
  16 H :    0.071631
Sum of atomic charges:   -0.0000000

--------------------------------
MULLIKEN REDUCED ORBITAL CHARGES
--------------------------------
  0 C s       :     3.268008  s :     3.268008
      pz      :     1.060571  p :     3.004618
      px      :     1.053249
      py      :     0.890799
      dz2     :     0.016948  d :     0.071701
      dxz     :     0.009122
      dyz     :     0.013741
      dx2y2   :     0.012088
      dxy     :     0.019803
      f0      :     0.001050  f :     0.004452
      f+1     :     0.000470
      f-1     :     0.000441
      f+2     :     0.000476
      f-2     :     0.000128
      f+3     :     0.000600
      f-3     :     0.001288
  1 C s       :     3.181946  s :     3.181946
      pz      :     0.885021  p :     2.440990
      px      :     0.771666
      py      :     0.784303
      dz2     :     0.035262  d :     0.207349
      dxz     :     0.037340
      dyz     :     0.047219
      dx2y2   :     0.039897
      dxy     :     0.047632
      f0      :     0.001540  f :     0.017946
      f+1     :     0.001835
      f-1     :     0.002799
      f+2     :     0.002766
      f-2     :     0.002914
      f+3     :     0.003426
      f-3     :     0.002666
  2 O s       :     3.855040  s :     3.855040
      pz      :     1.699976  p :     4.518844
      px      :     1.286275
      py      :     1.532593
      dz2     :     0.005849  d :     0.044856
      dxz     :     0.008565
      dyz     :     0.004118
      dx2y2   :     0.012839
      dxy     :     0.013485
      f0      :     0.000282  f :     0.002268
      f+1     :     0.000399
      f-1     :     0.000115
      f+2     :     0.000181
      f-2     :     0.000332
      f+3     :     0.000445
      f-3     :     0.000514
  3 C s       :     3.136519  s :     3.136519
      pz      :     0.942915  p :     2.606652
      px      :     0.705626
      py      :     0.958112
      dz2     :     0.028249  d :     0.143624
      dxz     :     0.034726
      dyz     :     0.021965
      dx2y2   :     0.032659
      dxy     :     0.026025
      f0      :     0.002795  f :     0.015252
      f+1     :     0.001986
      f-1     :     0.001705
      f+2     :     0.002598
      f-2     :     0.001676
      f+3     :     0.002132
      f-3     :     0.002360
  4 C s       :     3.207233  s :     3.207233
      pz      :     0.917926  p :     2.819437
      px      :     0.964376
      py      :     0.937135
      dz2     :     0.024643  d :     0.132117
      dxz     :     0.016744
      dyz     :     0.054786
      dx2y2   :     0.015558
      dxy     :     0.020386
      f0      :     0.001260  f :     0.012584
      f+1     :     0.000837
      f-1     :     0.003052
      f+2     :     0.002246
      f-2     :     0.002118
      f+3     :     0.001819
      f-3     :     0.001252
  5 C s       :     3.173044  s :     3.173044
      pz      :     0.949545  p :     2.907282
      px      :     0.957895
      py      :     0.999841
      dz2     :     0.028299  d :     0.096675
      dxz     :     0.018313
      dyz     :     0.020576
      dx2y2   :     0.017168
      dxy     :     0.012319
      f0      :     0.001151  f :     0.008511
      f+1     :     0.000759
      f-1     :     0.001975
      f+2     :     0.001283
      f-2     :     0.000835
      f+3     :     0.001244
      f-3     :     0.001263
  6 C s       :     3.118711  s :     3.118711
      pz      :     0.958314  p :     2.624504
      px      :     0.992132
      py      :     0.674058
      dz2     :     0.020601  d :     0.140316
      dxz     :     0.029872
      dyz     :     0.030142
      dx2y2   :     0.024819
      dxy     :     0.034882
      f0      :     0.001988  f :     0.011014
      f+1     :     0.000995
      f-1     :     0.001585
      f+2     :     0.001749
      f-2     :     0.000623
      f+3     :     0.001985
      f-3     :     0.002088
  7 O s       :     3.794455  s :     3.794455
      pz      :     1.508647  p :     4.602961
      px      :     1.759332
      py      :     1.334982
      dz2     :     0.012095  d :     0.039731
      dxz     :     0.007455
      dyz     :     0.005572
      dx2y2   :     0.008051
      dxy     :     0.006558
      f0      :     0.000259  f :     0.002019
      f+1     :     0.000390
      f-1     :     0.000383
      f+2     :     0.000229
      f-2     :     0.000181
      f+3     :     0.000256
      f-3     :     0.000320
  8 C s       :     2.963420  s :     2.963420
      pz      :     0.679864  p :     2.536305
      px      :     0.884804
      py      :     0.971637
      dz2     :     0.046029  d :     0.174993
      dxz     :     0.031783
      dyz     :     0.043962
      dx2y2   :     0.017317
      dxy     :     0.035901
      f0      :     0.003509  f :     0.014328
      f+1     :     0.002254
      f-1     :     0.002598
      f+2     :     0.002162
      f-2     :     0.002008
      f+3     :     0.000684
      f-3     :     0.001113
  9 H s       :     0.866634  s :     0.866634
      pz      :     0.003995  p :     0.021824
      px      :     0.011147
      py      :     0.006682
 10 H s       :     0.852005  s :     0.852005
      pz      :     0.006829  p :     0.021930
      px      :     0.009583
      py      :     0.005518
 11 H s       :     0.854248  s :     0.854248
      pz      :     0.013902  p :     0.021951
      px      :     0.004300
      py      :     0.003749
 12 H s       :     0.834596  s :     0.834596
      pz      :     0.015640  p :     0.022546
      px      :     0.003409
      py      :     0.003497
 13 H s       :     0.837593  s :     0.837593
      pz      :     0.004286  p :     0.023297
      px      :     0.003928
      py      :     0.015082
 14 H s       :     0.895371  s :     0.895371
      pz      :     0.008672  p :     0.021320
      px      :     0.010387
      py      :     0.002261
 15 H s       :     0.877167  s :     0.877167
      pz      :     0.005782  p :     0.021444
      px      :     0.010934
      py      :     0.004728
 16 H s       :     0.906272  s :     0.906272
      pz      :     0.002680  p :     0.022097
      px      :     0.012592
      py      :     0.006825


                     *******************************
                     * LOEWDIN POPULATION ANALYSIS *
                     *******************************

----------------------
LOEWDIN ATOMIC CHARGES
----------------------
   0 C :   -0.238348
   1 C :   -0.242732
   2 O :    0.140281
   3 C :   -0.141651
   4 C :   -0.124952
   5 C :   -0.108326
   6 C :   -0.217624
   7 O :    0.117454
   8 C :   -0.189449
   9 H :    0.122009
  10 H :    0.126435
  11 H :    0.125256
  12 H :    0.126414
  13 H :    0.132152
  14 H :    0.114057
  15 H :    0.120802
  16 H :    0.138222

-------------------------------
LOEWDIN REDUCED ORBITAL CHARGES
-------------------------------
  0 C s       :     2.818221  s :     2.818221
      pz      :     1.054497  p :     3.127317
      px      :     1.052662
      py      :     1.020158
      dz2     :     0.056985  d :     0.267811
      dxz     :     0.028539
      dyz     :     0.055022
      dx2y2   :     0.047835
      dxy     :     0.079430
      f0      :     0.003722  f :     0.024999
      f+1     :     0.001418
      f-1     :     0.003106
      f+2     :     0.004561
      f-2     :     0.002809
      f+3     :     0.004113
      f-3     :     0.005269
  1 C s       :     2.706729  s :     2.706729
      pz      :     0.936574  p :     2.709793
      px      :     0.813130
      py      :     0.960089
      dz2     :     0.125729  d :     0.722626
      dxz     :     0.120797
      dyz     :     0.154268
      dx2y2   :     0.156000
      dxy     :     0.165832
      f0      :     0.008916  f :     0.103585
      f+1     :     0.009236
      f-1     :     0.015842
      f+2     :     0.015455
      f-2     :     0.020143
      f+3     :     0.017939
      f-3     :     0.016054
  2 O s       :     3.362363  s :     3.362363
      pz      :     1.589562  p :     4.402028
      px      :     1.355326
      py      :     1.457140
      dz2     :     0.013049  d :     0.088977
      dxz     :     0.015189
      dyz     :     0.010562
      dx2y2   :     0.024628
      dxy     :     0.025549
      f0      :     0.000425  f :     0.006351
      f+1     :     0.001079
      f-1     :     0.000397
      f+2     :     0.000588
      f-2     :     0.000913
      f+3     :     0.001222
      f-3     :     0.001728
  3 C s       :     2.744769  s :     2.744769
      pz      :     0.988804  p :     2.731756
      px      :     0.774882
      py      :     0.968070
      dz2     :     0.148077  d :     0.574507
      dxz     :     0.127186
      dyz     :     0.085560
      dx2y2   :     0.115844
      dxy     :     0.097840
      f0      :     0.013636  f :     0.090619
      f+1     :     0.011793
      f-1     :     0.011221
      f+2     :     0.015975
      f-2     :     0.009501
      f+3     :     0.014249
      f-3     :     0.014244
  4 C s       :     2.719128  s :     2.719128
      pz      :     0.963832  p :     2.824736
      px      :     0.847321
      py      :     1.013583
      dz2     :     0.117921  d :     0.514549
      dxz     :     0.050366
      dyz     :     0.174499
      dx2y2   :     0.077325
      dxy     :     0.094439
      f0      :     0.008503  f :     0.066539
      f+1     :     0.003427
      f-1     :     0.019941
      f+2     :     0.012414
      f-2     :     0.011199
      f+3     :     0.005880
      f-3     :     0.005174
  5 C s       :     2.781877  s :     2.781877
      pz      :     1.011614  p :     2.912588
      px      :     0.874210
      py      :     1.026763
      dz2     :     0.119737  d :     0.369087
      dxz     :     0.064879
      dyz     :     0.089566
      dx2y2   :     0.069029
      dxy     :     0.025876
      f0      :     0.005972  f :     0.044775
      f+1     :     0.004086
      f-1     :     0.014428
      f+2     :     0.006718
      f-2     :     0.005934
      f+3     :     0.002733
      f-3     :     0.004905
  6 C s       :     2.795563  s :     2.795563
      pz      :     1.012567  p :     2.832865
      px      :     1.033117
      py      :     0.787181
      dz2     :     0.084265  d :     0.519580
      dxz     :     0.106072
      dyz     :     0.113114
      dx2y2   :     0.100776
      dxy     :     0.115353
      f0      :     0.012535  f :     0.069617
      f+1     :     0.004516
      f-1     :     0.012025
      f+2     :     0.009873
      f-2     :     0.004423
      f+3     :     0.013422
      f-3     :     0.012824
  7 O s       :     3.291231  s :     3.291231
      pz      :     1.473185  p :     4.489471
      px      :     1.667073
      py      :     1.349213
      dz2     :     0.025378  d :     0.095513
      dxz     :     0.014367
      dyz     :     0.021064
      dx2y2   :     0.019352
      dxy     :     0.015351
      f0      :     0.001155  f :     0.006331
      f+1     :     0.001016
      f-1     :     0.001091
      f+2     :     0.000836
      f-2     :     0.000632
      f+3     :     0.000841
      f-3     :     0.000762
  8 C s       :     2.726103  s :     2.726103
      pz      :     0.823685  p :     2.719545
      px      :     0.928833
      py      :     0.967027
      dz2     :     0.191837  d :     0.652328
      dxz     :     0.129401
      dyz     :     0.151786
      dx2y2   :     0.066797
      dxy     :     0.112507
      f0      :     0.022679  f :     0.091472
      f+1     :     0.013402
      f-1     :     0.018933
      f+2     :     0.014853
      f-2     :     0.011428
      f+3     :     0.003887
      f-3     :     0.006290
  9 H s       :     0.818666  s :     0.818666
      pz      :     0.013266  p :     0.059325
      px      :     0.029471
      py      :     0.016588
 10 H s       :     0.813693  s :     0.813693
      pz      :     0.019800  p :     0.059872
      px      :     0.025372
      py      :     0.014701
 11 H s       :     0.814845  s :     0.814845
      pz      :     0.034932  p :     0.059898
      px      :     0.013546
      py      :     0.011421
 12 H s       :     0.811975  s :     0.811975
      pz      :     0.039635  p :     0.061611
      px      :     0.010336
      py      :     0.011640
 13 H s       :     0.806418  s :     0.806418
      pz      :     0.013099  p :     0.061430
      px      :     0.012659
      py      :     0.035672
 14 H s       :     0.829310  s :     0.829310
      pz      :     0.021224  p :     0.056633
      px      :     0.027747
      py      :     0.007663
 15 H s       :     0.822437  s :     0.822437
      pz      :     0.015166  p :     0.056761
      px      :     0.028613
      py      :     0.012982
 16 H s       :     0.807063  s :     0.807063
      pz      :     0.007589  p :     0.054714
      px      :     0.029674
      py      :     0.017452


                      *****************************
                      * MAYER POPULATION ANALYSIS *
                      *****************************

  NA   - Mulliken gross atomic population
  ZA   - Total nuclear charge
  QA   - Mulliken gross atomic charge
  VA   - Mayer's total valence
  BVA  - Mayer's bonded valence
  FA   - Mayer's free valence

  ATOM       NA         ZA         QA         VA         BVA        FA
  0 C      6.3488     6.0000    -0.3488     3.9332     3.9332     0.0000
  1 C      5.8482     6.0000     0.1518     3.7732     3.7732     0.0000
  2 O      8.4210     8.0000    -0.4210     1.8909     1.8909    -0.0000
  3 C      5.9020     6.0000     0.0980     3.8118     3.8118    -0.0000
  4 C      6.1714     6.0000    -0.1714     3.9051     3.9051    -0.0000
  5 C      6.1855     6.0000    -0.1855     3.9757     3.9757    -0.0000
  6 C      5.8945     6.0000     0.1055     3.9348     3.9348    -0.0000
  7 O      8.4392     8.0000    -0.4392     1.8893     1.8893     0.0000
  8 C      5.6890     6.0000     0.3110     3.8682     3.8682    -0.0000
  9 H      0.8885     1.0000     0.1115     0.9694     0.9694     0.0000
 10 H      0.8739     1.0000     0.1261     0.9701     0.9701     0.0000
 11 H      0.8762     1.0000     0.1238     0.9713     0.9713     0.0000
 12 H      0.8571     1.0000     0.1429     0.9601     0.9601     0.0000
 13 H      0.8609     1.0000     0.1391     0.9725     0.9725     0.0000
 14 H      0.9167     1.0000     0.0833     0.9674     0.9674    -0.0000
 15 H      0.8986     1.0000     0.1014     0.9643     0.9643    -0.0000
 16 H      0.9284     1.0000     0.0716     0.9764     0.9764    -0.0000

  Mayer bond orders larger than 0.1
B(  0-C ,  1-C ) :   0.9356 B(  0-C ,  9-H ) :   0.9897 B(  0-C , 10-H ) :   0.9880 
B(  0-C , 11-H ) :   0.9848 B(  1-C ,  2-O ) :   0.9192 B(  1-C ,  3-C ) :   0.9851 
B(  1-C ,  8-C ) :   0.9368 B(  2-O ,  3-C ) :   0.9136 B(  3-C ,  4-C ) :   0.9280 
B(  3-C , 12-H ) :   0.9568 B(  4-C ,  5-C ) :   1.9643 B(  4-C ,  8-C ) :   1.0223 
B(  5-C ,  6-C ) :   1.0200 B(  5-C , 13-H ) :   0.9561 B(  6-C ,  7-O ) :   0.9444 
B(  6-C , 14-H ) :   0.9744 B(  6-C , 15-H ) :   0.9721 B(  7-O ,  8-C ) :   0.9484 
B(  8-C , 16-H ) :   0.9719 

-------
TIMINGS
-------

Total SCF time: 0 days 0 hours 2 min 4 sec 

Total time                  ....     124.126 sec
Sum of individual times     ....     128.020 sec  (103.1%)

Fock matrix formation       ....     122.786 sec  ( 98.9%)
Diagonalization             ....       0.580 sec  (  0.5%)
Density matrix formation    ....       0.040 sec  (  0.0%)
Population analysis         ....       0.151 sec  (  0.1%)
Initial guess               ....       2.737 sec  (  2.2%)
Orbital Transformation      ....       0.000 sec  (  0.0%)
Orbital Orthonormalization  ....       0.000 sec  (  0.0%)
DIIS solution               ....       0.162 sec  (  0.1%)
SOSCF solution              ....       0.281 sec  (  0.2%)

   <<< Auxbasis replaced with dsgdb9nsd_069668.AUXC.tmp (Dim=804) >>> 


------------------------------------------------------------------------------
                              ORCA MP2 CALCULATION
------------------------------------------------------------------------------

Freezing NCore=18 chemical core electrons

   <<< Use J-auxbasis for calculation of Separable RI-J derivative contributions dsgdb9nsd_069668.AUXJ.tmp (Dim=823) >>> 


---------------------
RI-MP2 ENERGY+DENSITY
---------------------
Dimension of the basis                    ...  327
Memory devoted to MP2                     ... 2000 MB   
Data format for buffers                   ... DOUBLE
Compression type for matrix containers    ... UNCOMPRESSED
Overall scaling of the MP2 energy         ...   1.000e+00 Eh
Calculating two index integrals           ... done (    0.017 sec)
Cholesky decomposition of V**-1           ... done (    0.108 sec)

-----------------
RI-TRANSFORMATION (AUX index driven)
-----------------

Dimension of the orbital-basis         ... 327
Dimension of the aux-basis             ... 804
Transformation of internal MOs         ...    0-  32
Transformation of internal/external MOs...    0-  32 to   33- 326
Number Format for Storage              ... Double (8 Byte)
Integral mode                          ... Direct

First Phase: integral generation and transformation of MO indices
  Aux angular momentum 0               ... done (    0.759 sec)
  Aux angular momentum 1               ... done (    1.021 sec)
  Aux angular momentum 2               ... done (    1.108 sec)
  Aux angular momentum 3               ... done (    0.891 sec)
  Aux angular momentum 4               ... done (    0.405 sec)
Closing buffer VIJ ( 0.00 GB; CompressionRatio= 1.94)
Closing buffer VIA ( 0.06 GB; CompressionRatio= 1.00)
  Phase 1 completed in     4.283 sec
Second Phase: sorting and transformation of aux index

IJ-Transformation
Memory available                       ... 1987 MB 
Max. # MO pairs treated in a batch     ... 33    
# of internal orbitals                 ... 33
# batches for internal orbitals        ... 1
Closing buffer IJV ( 0.00 GB; CompressionRatio= 1.00)
(ij|v) transformation done in     0.179 sec

IA-Transformation
Memory available                       ... 1987 MB 
Max. # MO pairs treated in a batch     ... 33    
# of internal orbitals                 ... 33
# batches for internal orbitals        ... 1
Closing buffer IAV ( 0.06 GB; CompressionRatio= 1.00)
(ia|v) transformation done in     1.298 sec

  Phase 2 completed in     1.615 sec
RI-Integral transformation completed in     5.899 sec
Opening buffers                              ... done
Frozen core precalculation                   ... done

Starting loop over batches of integrals:

Operator 0  - window                       ... (  9- 32)x( 33-326)
Operator 0  - Memory available             ...  2000 MB
Operator 0  - Memory needed per MO         ...   3.6 MB
Operator 0  - Number of orbitals per batch ... 24
Operator 0  - Number of batches            ... 1

OPERATOR  0   PASS   0:  MOs     9 ...   32
  Reading integrals       ... ok
  Internal MO  11
  Internal MO  14
  Internal MO  17
  Internal MO  20
  Internal MO  23
  Internal MO  26
  Internal MO  29
  Internal MO  32
Time spent in pair loops =    33.990 sec
Deleting buffer (Ka|jb)[aa] ...done

-----------------------------------------------
 RI-MP2 CORRELATION ENERGY:     -1.577078081 Eh
-----------------------------------------------


---------------------
MP2 DENSITY FORMATION
---------------------

Completing the external part of the density      ... done
Storing the unrelaxed density                    ... done

Calculating G(D)                                 ... done
Completing the Lagrangian                        ... done
Solving the Z-vector equations                   ... 

------------------------------------------------------------------------------
                           ORCA CP-SCF CALCULATION
------------------------------------------------------------------------------

Input orbitals are from        ... dsgdb9nsd_069668.gbw
Input Perturbation             ... dsgdb9nsd_069668.pin.tmp
Wavefunction output            ... dsgdb9nsd_069668.pout.tmp
Perturbation mode              ... Real perturbation
Solver                         ... POPLE
Max. number of iterations      ... 128
Convergence tolerance          ... 1.000e-08
Integral handling              ... Direct
Number of perturbations        ... 1
Number of operators            ... 1
Orbital ranges used for CP-SCF:
 Operator 0:  Orbitals   0... 32  to  33...326
Variables per vector in CP-SCF ... 9702
Number of vectors sought       ... 1
     CP-SCF ITERATION   0: 
     CP-SCF ITERATION   1:      0.001269039
     CP-SCF ITERATION   2:      0.000208532
     CP-SCF ITERATION   3:      0.000014798
     CP-SCF ITERATION   4:      0.000002012
     CP-SCF ITERATION   5:      0.000000261
     CP-SCF ITERATION   6:      0.000000031
     CP-SCF ITERATION   7:      0.000000004
done
Finalizing the relaxed density                   ... done
Transforming P to the AO basis                   ... done
Storing the relaxed density                      ... done

                *********************************************
                * UNRELAXED MP2 DENSITY POPULATION ANALYSIS *
                *********************************************

------------------------------------------------------------------------------
                           ORCA POPULATION ANALYSIS
------------------------------------------------------------------------------
Input electron density              ... dsgdb9nsd_069668.pmp2ur
BaseName (.gbw .S,...)              ... dsgdb9nsd_069668

                    ********************************
                    * MULLIKEN POPULATION ANALYSIS *
                    ********************************

-----------------------
MULLIKEN ATOMIC CHARGES
-----------------------
   0 C :   -0.357732
   1 C :    0.138866
   2 O :   -0.397857
   3 C :    0.084335
   4 C :   -0.167305
   5 C :   -0.190210
   6 C :    0.089390
   7 O :   -0.419203
   8 C :    0.293337
   9 H :    0.114578
  10 H :    0.129261
  11 H :    0.126838
  12 H :    0.146438
  13 H :    0.142507
  14 H :    0.086493
  15 H :    0.104745
  16 H :    0.075517
Sum of atomic charges:   -0.0000000

--------------------------------
MULLIKEN REDUCED ORBITAL CHARGES
--------------------------------
  0 C s       :     3.265837  s :     3.265837
      pz      :     1.054351  p :     2.986428
      px      :     1.047241
      py      :     0.884836
      dz2     :     0.021708  d :     0.097284
      dxz     :     0.014824
      dyz     :     0.019328
      dx2y2   :     0.016295
      dxy     :     0.025129
      f0      :     0.001557  f :     0.008183
      f+1     :     0.001001
      f-1     :     0.000984
      f+2     :     0.001014
      f-2     :     0.000674
      f+3     :     0.001204
      f-3     :     0.001749
  1 C s       :     3.180663  s :     3.180663
      pz      :     0.880808  p :     2.432828
      px      :     0.772918
      py      :     0.779102
      dz2     :     0.039683  d :     0.225667
      dxz     :     0.041222
      dyz     :     0.049793
      dx2y2   :     0.044361
      dxy     :     0.050608
      f0      :     0.002097  f :     0.021976
      f+1     :     0.002324
      f-1     :     0.003448
      f+2     :     0.003390
      f-2     :     0.003428
      f+3     :     0.004049
      f-3     :     0.003239
  2 O s       :     3.848079  s :     3.848079
      pz      :     1.682841  p :     4.472258
      px      :     1.272740
      py      :     1.516677
      dz2     :     0.011532  d :     0.072486
      dxz     :     0.014131
      dyz     :     0.009885
      dx2y2   :     0.018131
      dxy     :     0.018807
      f0      :     0.000663  f :     0.005034
      f+1     :     0.000800
      f-1     :     0.000487
      f+2     :     0.000577
      f-2     :     0.000725
      f+3     :     0.000859
      f-3     :     0.000923
  3 C s       :     3.133152  s :     3.133152
      pz      :     0.938706  p :     2.600637
      px      :     0.709669
      py      :     0.952262
      dz2     :     0.032778  d :     0.162858
      dxz     :     0.039229
      dyz     :     0.024726
      dx2y2   :     0.035577
      dxy     :     0.030548
      f0      :     0.003390  f :     0.019018
      f+1     :     0.002602
      f-1     :     0.002347
      f+2     :     0.003147
      f-2     :     0.002183
      f+3     :     0.002537
      f-3     :     0.002813
  4 C s       :     3.203198  s :     3.203198
      pz      :     0.909823  p :     2.794984
      px      :     0.957041
      py      :     0.928120
      dz2     :     0.029425  d :     0.152545
      dxz     :     0.021617
      dyz     :     0.056021
      dx2y2   :     0.020229
      dxy     :     0.025253
      f0      :     0.001852  f :     0.016578
      f+1     :     0.001378
      f-1     :     0.003816
      f+2     :     0.002758
      f-2     :     0.002714
      f+3     :     0.002310
      f-3     :     0.001750
  5 C s       :     3.171620  s :     3.171620
      pz      :     0.942495  p :     2.887405
      px      :     0.951323
      py      :     0.993587
      dz2     :     0.032814  d :     0.119049
      dxz     :     0.023023
      dyz     :     0.024236
      dx2y2   :     0.021791
      dxy     :     0.017186
      f0      :     0.001707  f :     0.012136
      f+1     :     0.001249
      f-1     :     0.002634
      f+2     :     0.001765
      f-2     :     0.001363
      f+3     :     0.001718
      f-3     :     0.001701
  6 C s       :     3.117131  s :     3.117131
      pz      :     0.952756  p :     2.618342
      px      :     0.988075
      py      :     0.677510
      dz2     :     0.024206  d :     0.160545
      dxz     :     0.034504
      dyz     :     0.034120
      dx2y2   :     0.028272
      dxy     :     0.039444
      f0      :     0.002506  f :     0.014592
      f+1     :     0.001578
      f-1     :     0.002054
      f+2     :     0.002268
      f-2     :     0.001206
      f+3     :     0.002478
      f-3     :     0.002502
  7 O s       :     3.788509  s :     3.788509
      pz      :     1.493607  p :     4.557222
      px      :     1.742195
      py      :     1.321420
      dz2     :     0.017684  d :     0.068654
      dxz     :     0.013203
      dyz     :     0.011544
      dx2y2   :     0.013812
      dxy     :     0.012412
      f0      :     0.000676  f :     0.004818
      f+1     :     0.000788
      f-1     :     0.000784
      f+2     :     0.000628
      f-2     :     0.000577
      f+3     :     0.000652
      f-3     :     0.000712
  8 C s       :     2.963754  s :     2.963754
      pz      :     0.681967  p :     2.530353
      px      :     0.882004
      py      :     0.966382
      dz2     :     0.049854  d :     0.194324
      dxz     :     0.035352
      dyz     :     0.046571
      dx2y2   :     0.022060
      dxy     :     0.040487
      f0      :     0.004085  f :     0.018230
      f+1     :     0.002741
      f-1     :     0.003214
      f+2     :     0.002716
      f-2     :     0.002569
      f+3     :     0.001270
      f-3     :     0.001636
  9 H s       :     0.860542  s :     0.860542
      pz      :     0.005092  p :     0.024880
      px      :     0.012078
      py      :     0.007710
 10 H s       :     0.845796  s :     0.845796
      pz      :     0.007844  p :     0.024943
      px      :     0.010523
      py      :     0.006576
 11 H s       :     0.848194  s :     0.848194
      pz      :     0.014748  p :     0.024968
      px      :     0.005372
      py      :     0.004848
 12 H s       :     0.827986  s :     0.827986
      pz      :     0.016367  p :     0.025576
      px      :     0.004570
      py      :     0.004638
 13 H s       :     0.831218  s :     0.831218
      pz      :     0.005357  p :     0.026275
      px      :     0.005058
      py      :     0.015860
 14 H s       :     0.889052  s :     0.889052
      pz      :     0.009664  p :     0.024455
      px      :     0.011340
      py      :     0.003451
 15 H s       :     0.870739  s :     0.870739
      pz      :     0.006841  p :     0.024515
      px      :     0.011825
      py      :     0.005849
 16 H s       :     0.899237  s :     0.899237
      pz      :     0.003830  p :     0.025246
      px      :     0.013519
      py      :     0.007897


                     *******************************
                     * LOEWDIN POPULATION ANALYSIS *
                     *******************************

----------------------
LOEWDIN ATOMIC CHARGES
----------------------
   0 C :   -0.245016
   1 C :   -0.248588
   2 O :    0.156556
   3 C :   -0.151044
   4 C :   -0.126061
   5 C :   -0.111958
   6 C :   -0.226664
   7 O :    0.130908
   8 C :   -0.197236
   9 H :    0.123739
  10 H :    0.128286
  11 H :    0.127060
  12 H :    0.128290
  13 H :    0.134024
  14 H :    0.115589
  15 H :    0.122487
  16 H :    0.139629

-------------------------------
LOEWDIN REDUCED ORBITAL CHARGES
-------------------------------
  0 C s       :     2.816524  s :     2.816524
      pz      :     1.046726  p :     3.102567
      px      :     1.045027
      py      :     1.010814
      dz2     :     0.062550  d :     0.295358
      dxz     :     0.034350
      dyz     :     0.060149
      dx2y2   :     0.053628
      dxy     :     0.084682
      f0      :     0.004562  f :     0.030566
      f+1     :     0.002125
      f-1     :     0.003894
      f+2     :     0.005292
      f-2     :     0.003527
      f+3     :     0.004900
      f-3     :     0.006266
  1 C s       :     2.705972  s :     2.705972
      pz      :     0.928726  p :     2.692431
      px      :     0.811640
      py      :     0.952065
      dz2     :     0.129207  d :     0.740010
      dxz     :     0.124756
      dyz     :     0.158005
      dx2y2   :     0.159000
      dxy     :     0.169043
      f0      :     0.009896  f :     0.110175
      f+1     :     0.010012
      f-1     :     0.016856
      f+2     :     0.016296
      f-2     :     0.021123
      f+3     :     0.018882
      f-3     :     0.017110
  2 O s       :     3.358176  s :     3.358176
      pz      :     1.573486  p :     4.356402
      px      :     1.341062
      py      :     1.441854
      dz2     :     0.019128  d :     0.119384
      dxz     :     0.021326
      dyz     :     0.016617
      dx2y2   :     0.030532
      dxy     :     0.031781
      f0      :     0.000860  f :     0.009483
      f+1     :     0.001523
      f-1     :     0.000784
      f+2     :     0.001025
      f-2     :     0.001373
      f+3     :     0.001722
      f-3     :     0.002197
  3 C s       :     2.744059  s :     2.744059
      pz      :     0.981074  p :     2.714806
      px      :     0.774915
      py      :     0.958817
      dz2     :     0.151683  d :     0.595648
      dxz     :     0.130949
      dyz     :     0.091058
      dx2y2   :     0.120377
      dxy     :     0.101580
      f0      :     0.014556  f :     0.096531
      f+1     :     0.012800
      f-1     :     0.012176
      f+2     :     0.016855
      f-2     :     0.010266
      f+3     :     0.015067
      f-3     :     0.014810
  4 C s       :     2.716764  s :     2.716764
      pz      :     0.953671  p :     2.796376
      px      :     0.839911
      py      :     1.002795
      dz2     :     0.121791  d :     0.539398
      dxz     :     0.056423
      dyz     :     0.179338
      dx2y2   :     0.083470
      dxy     :     0.098377
      f0      :     0.009479  f :     0.073523
      f+1     :     0.004194
      f-1     :     0.021150
      f+2     :     0.013654
      f-2     :     0.012236
      f+3     :     0.006788
      f-3     :     0.006023
  5 C s       :     2.779351  s :     2.779351
      pz      :     1.001192  p :     2.886128
      px      :     0.867347
      py      :     1.017589
      dz2     :     0.123982  d :     0.395453
      dxz     :     0.069100
      dyz     :     0.095887
      dx2y2   :     0.074594
      dxy     :     0.031890
      f0      :     0.006975  f :     0.051027
      f+1     :     0.004775
      f-1     :     0.015594
      f+2     :     0.007748
      f-2     :     0.006767
      f+3     :     0.003528
      f-3     :     0.005639
  6 C s       :     2.794754  s :     2.794754
      pz      :     1.004321  p :     2.817065
      px      :     1.026310
      py      :     0.786433
      dz2     :     0.088930  d :     0.539764
      dxz     :     0.110456
      dyz     :     0.116394
      dx2y2   :     0.104755
      dxy     :     0.119230
      f0      :     0.013260  f :     0.075081
      f+1     :     0.005358
      f-1     :     0.012980
      f+2     :     0.010613
      f-2     :     0.005227
      f+3     :     0.014050
      f-3     :     0.013593
  7 O s       :     3.288341  s :     3.288341
      pz      :     1.458375  p :     4.444888
      px      :     1.651102
      py      :     1.335411
      dz2     :     0.031681  d :     0.126367
      dxz     :     0.020705
      dyz     :     0.026904
      dx2y2   :     0.025793
      dxy     :     0.021284
      f0      :     0.001611  f :     0.009496
      f+1     :     0.001488
      f-1     :     0.001580
      f+2     :     0.001268
      f-2     :     0.001059
      f+3     :     0.001279
      f-3     :     0.001211
  8 C s       :     2.725846  s :     2.725846
      pz      :     0.820950  p :     2.702610
      px      :     0.923206
      py      :     0.958453
      dz2     :     0.193901  d :     0.670979
      dxz     :     0.133535
      dyz     :     0.154968
      dx2y2   :     0.072164
      dxy     :     0.116411
      f0      :     0.023350  f :     0.097801
      f+1     :     0.014616
      f-1     :     0.019916
      f+2     :     0.015697
      f-2     :     0.012490
      f+3     :     0.004607
      f-3     :     0.007125
  9 H s       :     0.811757  s :     0.811757
      pz      :     0.014574  p :     0.064503
      px      :     0.031658
      py      :     0.018271
 10 H s       :     0.806763  s :     0.806763
      pz      :     0.021416  p :     0.064951
      px      :     0.027277
      py      :     0.016258
 11 H s       :     0.807923  s :     0.807923
      pz      :     0.037384  p :     0.065017
      px      :     0.014859
      py      :     0.012774
 12 H s       :     0.805004  s :     0.805004
      pz      :     0.041924  p :     0.066706
      px      :     0.011855
      py      :     0.012926
 13 H s       :     0.799479  s :     0.799479
      pz      :     0.014477  p :     0.066497
      px      :     0.013947
      py      :     0.038073
 14 H s       :     0.822327  s :     0.822327
      pz      :     0.023129  p :     0.062084
      px      :     0.029803
      py      :     0.009152
 15 H s       :     0.815459  s :     0.815459
      pz      :     0.016722  p :     0.062054
      px      :     0.030614
      py      :     0.014718
 16 H s       :     0.799900  s :     0.799900
      pz      :     0.009115  p :     0.060471
      px      :     0.032117
      py      :     0.019239


                      *****************************
                      * MAYER POPULATION ANALYSIS *
                      *****************************

  NA   - Mulliken gross atomic population
  ZA   - Total nuclear charge
  QA   - Mulliken gross atomic charge
  VA   - Mayer's total valence
  BVA  - Mayer's bonded valence
  FA   - Mayer's free valence

  ATOM       NA         ZA         QA         VA         BVA        FA
  0 C      6.3577     6.0000    -0.3577     4.0536     3.7551     0.2985
  1 C      5.8611     6.0000     0.1389     3.8638     3.4941     0.3697
  2 O      8.3979     8.0000    -0.3979     2.1928     1.7251     0.4677
  3 C      5.9157     6.0000     0.0843     3.9043     3.5478     0.3565
  4 C      6.1673     6.0000    -0.1673     4.0008     3.6041     0.3966
  5 C      6.1902     6.0000    -0.1902     4.0846     3.6993     0.3853
  6 C      5.9106     6.0000     0.0894     4.0286     3.7212     0.3074
  7 O      8.4192     8.0000    -0.4192     2.1858     1.7534     0.4324
  8 C      5.7067     6.0000     0.2933     3.9546     3.6181     0.3365
  9 H      0.8854     1.0000     0.1146     0.9783     0.9280     0.0503
 10 H      0.8707     1.0000     0.1293     0.9782     0.9292     0.0490
 11 H      0.8732     1.0000     0.1268     0.9799     0.9305     0.0494
 12 H      0.8536     1.0000     0.1464     0.9671     0.9195     0.0477
 13 H      0.8575     1.0000     0.1425     0.9801     0.9318     0.0483
 14 H      0.9135     1.0000     0.0865     0.9771     0.9248     0.0524
 15 H      0.8953     1.0000     0.1047     0.9731     0.9229     0.0503
 16 H      0.9245     1.0000     0.0755     0.9862     0.9313     0.0548

  Mayer bond orders larger than 0.1
B(  0-C ,  1-C ) :   0.8817 B(  0-C ,  9-H ) :   0.9502 B(  0-C , 10-H ) :   0.9490 
B(  0-C , 11-H ) :   0.9455 B(  1-C ,  2-O ) :   0.8449 B(  1-C ,  3-C ) :   0.9089 
B(  1-C ,  8-C ) :   0.8714 B(  2-O ,  3-C ) :   0.8345 B(  3-C ,  4-C ) :   0.8676 
B(  3-C , 12-H ) :   0.9202 B(  4-C ,  5-C ) :   1.8025 B(  4-C ,  8-C ) :   0.9541 
B(  5-C ,  6-C ) :   0.9581 B(  5-C , 13-H ) :   0.9188 B(  6-C ,  7-O ) :   0.8795 
B(  6-C , 14-H ) :   0.9346 B(  6-C , 15-H ) :   0.9329 B(  7-O ,  8-C ) :   0.8857 
B(  8-C , 16-H ) :   0.9307 


                *******************************************
                * RELAXED MP2 DENSITY POPULATION ANALYSIS *
                *******************************************

------------------------------------------------------------------------------
                           ORCA POPULATION ANALYSIS
------------------------------------------------------------------------------
Input electron density              ... dsgdb9nsd_069668.pmp2re
BaseName (.gbw .S,...)              ... dsgdb9nsd_069668

                    ********************************
                    * MULLIKEN POPULATION ANALYSIS *
                    ********************************

-----------------------
MULLIKEN ATOMIC CHARGES
-----------------------
   0 C :   -0.422310
   1 C :    0.100218
   2 O :   -0.299576
   3 C :    0.014729
   4 C :   -0.082245
   5 C :   -0.208176
   6 C :    0.004700
   7 O :   -0.332286
   8 C :    0.185177
   9 H :    0.135868
  10 H :    0.150530
  11 H :    0.145803
  12 H :    0.150029
  13 H :    0.143499
  14 H :    0.103765
  15 H :    0.122898
  16 H :    0.087377
Sum of atomic charges:   -0.0000000

--------------------------------
MULLIKEN REDUCED ORBITAL CHARGES
--------------------------------
  0 C s       :     3.280656  s :     3.280656
      pz      :     1.074122  p :     3.047758
      px      :     1.070870
      py      :     0.902766
      dz2     :     0.017748  d :     0.086061
      dxz     :     0.012325
      dyz     :     0.018555
      dx2y2   :     0.013264
      dxy     :     0.024169
      f0      :     0.001469  f :     0.007835
      f+1     :     0.000964
      f-1     :     0.000939
      f+2     :     0.000982
      f-2     :     0.000656
      f+3     :     0.001236
      f-3     :     0.001588
  1 C s       :     3.211193  s :     3.211193
      pz      :     0.883177  p :     2.449761
      px      :     0.789594
      py      :     0.776990
      dz2     :     0.037952  d :     0.217800
      dxz     :     0.037528
      dyz     :     0.049119
      dx2y2   :     0.043743
      dxy     :     0.049459
      f0      :     0.002008  f :     0.021028
      f+1     :     0.002187
      f-1     :     0.003326
      f+2     :     0.003308
      f-2     :     0.003178
      f+3     :     0.003968
      f-3     :     0.003053
  2 O s       :     3.840218  s :     3.840218
      pz      :     1.644250  p :     4.383547
      px      :     1.255424
      py      :     1.483872
      dz2     :     0.011471  d :     0.070806
      dxz     :     0.013930
      dyz     :     0.009552
      dx2y2   :     0.017741
      dxy     :     0.018112
      f0      :     0.000660  f :     0.005006
      f+1     :     0.000795
      f-1     :     0.000492
      f+2     :     0.000586
      f-2     :     0.000708
      f+3     :     0.000848
      f-3     :     0.000916
  3 C s       :     3.177485  s :     3.177485
      pz      :     0.951351  p :     2.634049
      px      :     0.727809
      py      :     0.954890
      dz2     :     0.031552  d :     0.155411
      dxz     :     0.040421
      dyz     :     0.021076
      dx2y2   :     0.031046
      dxy     :     0.031316
      f0      :     0.003268  f :     0.018325
      f+1     :     0.002590
      f-1     :     0.002289
      f+2     :     0.002944
      f-2     :     0.002114
      f+3     :     0.002451
      f-3     :     0.002669
  4 C s       :     3.193952  s :     3.193952
      pz      :     0.895003  p :     2.733543
      px      :     0.937828
      py      :     0.900711
      dz2     :     0.028896  d :     0.138893
      dxz     :     0.019993
      dyz     :     0.046582
      dx2y2   :     0.021415
      dxy     :     0.022007
      f0      :     0.001728  f :     0.015857
      f+1     :     0.001325
      f-1     :     0.003664
      f+2     :     0.002523
      f-2     :     0.002631
      f+3     :     0.002266
      f-3     :     0.001719
  5 C s       :     3.196748  s :     3.196748
      pz      :     0.935443  p :     2.893290
      px      :     0.972554
      py      :     0.985293
      dz2     :     0.030726  d :     0.106670
      dxz     :     0.021066
      dyz     :     0.020580
      dx2y2   :     0.020545
      dxy     :     0.013755
      f0      :     0.001598  f :     0.011468
      f+1     :     0.001213
      f-1     :     0.002499
      f+2     :     0.001648
      f-2     :     0.001259
      f+3     :     0.001613
      f-3     :     0.001637
  6 C s       :     3.142150  s :     3.142150
      pz      :     0.976487  p :     2.686960
      px      :     1.016452
      py      :     0.694021
      dz2     :     0.021859  d :     0.152308
      dxz     :     0.031898
      dyz     :     0.033184
      dx2y2   :     0.025622
      dxy     :     0.039745
      f0      :     0.002376  f :     0.013881
      f+1     :     0.001528
      f-1     :     0.001913
      f+2     :     0.002146
      f-2     :     0.001177
      f+3     :     0.002414
      f-3     :     0.002327
  7 O s       :     3.779602  s :     3.779602
      pz      :     1.471619  p :     4.480741
      px      :     1.709298
      py      :     1.299824
      dz2     :     0.016661  d :     0.067151
      dxz     :     0.012830
      dyz     :     0.011984
      dx2y2   :     0.013274
      dxy     :     0.012403
      f0      :     0.000688  f :     0.004791
      f+1     :     0.000763
      f-1     :     0.000769
      f+2     :     0.000647
      f-2     :     0.000573
      f+3     :     0.000649
      f-3     :     0.000702
  8 C s       :     3.022733  s :     3.022733
      pz      :     0.698680  p :     2.589196
      px      :     0.903783
      py      :     0.986733
      dz2     :     0.050454  d :     0.185518
      dxz     :     0.034676
      dyz     :     0.040736
      dx2y2   :     0.021622
      dxy     :     0.038030
      f0      :     0.003895  f :     0.017377
      f+1     :     0.002626
      f-1     :     0.003126
      f+2     :     0.002558
      f-2     :     0.002397
      f+3     :     0.001235
      f-3     :     0.001540
  9 H s       :     0.840215  s :     0.840215
      pz      :     0.005290  p :     0.023917
      px      :     0.011142
      py      :     0.007485
 10 H s       :     0.825571  s :     0.825571
      pz      :     0.007572  p :     0.023899
      px      :     0.009804
      py      :     0.006523
 11 H s       :     0.830225  s :     0.830225
      pz      :     0.013360  p :     0.023972
      px      :     0.005519
      py      :     0.005093
 12 H s       :     0.825479  s :     0.825479
      pz      :     0.014815  p :     0.024492
      px      :     0.004791
      py      :     0.004886
 13 H s       :     0.831491  s :     0.831491
      pz      :     0.005417  p :     0.025010
      px      :     0.005244
      py      :     0.014349
 14 H s       :     0.872894  s :     0.872894
      pz      :     0.009149  p :     0.023341
      px      :     0.010497
      py      :     0.003695
 15 H s       :     0.853748  s :     0.853748
      pz      :     0.006767  p :     0.023355
      px      :     0.010877
      py      :     0.005711
 16 H s       :     0.888446  s :     0.888446
      pz      :     0.004037  p :     0.024177
      px      :     0.012434
      py      :     0.007706


                     *******************************
                     * LOEWDIN POPULATION ANALYSIS *
                     *******************************

----------------------
LOEWDIN ATOMIC CHARGES
----------------------
   0 C :   -0.272185
   1 C :   -0.271765
   2 O :    0.205010
   3 C :   -0.174911
   4 C :   -0.130764
   5 C :   -0.120970
   6 C :   -0.256781
   7 O :    0.166602
   8 C :   -0.226085
   9 H :    0.133343
  10 H :    0.137126
  11 H :    0.135718
  12 H :    0.134253
  13 H :    0.139767
  14 H :    0.123207
  15 H :    0.130436
  16 H :    0.147999

-------------------------------
LOEWDIN REDUCED ORBITAL CHARGES
-------------------------------
  0 C s       :     2.822306  s :     2.822306
      pz      :     1.059567  p :     3.137659
      px      :     1.059019
      py      :     1.019073
      dz2     :     0.057338  d :     0.281958
      dxz     :     0.031525
      dyz     :     0.059861
      dx2y2   :     0.049720
      dxy     :     0.083514
      f0      :     0.004439  f :     0.030262
      f+1     :     0.002071
      f-1     :     0.003856
      f+2     :     0.005289
      f-2     :     0.003496
      f+3     :     0.005003
      f-3     :     0.006108
  1 C s       :     2.714420  s :     2.714420
      pz      :     0.932369  p :     2.709324
      px      :     0.828738
      py      :     0.948218
      dz2     :     0.129646  d :     0.739768
      dxz     :     0.123455
      dyz     :     0.159390
      dx2y2   :     0.157951
      dxy     :     0.169326
      f0      :     0.009761  f :     0.108252
      f+1     :     0.009420
      f-1     :     0.016829
      f+2     :     0.016008
      f-2     :     0.020918
      f+3     :     0.018489
      f-3     :     0.016828
  2 O s       :     3.364609  s :     3.364609
      pz      :     1.549671  p :     4.300113
      px      :     1.326572
      py      :     1.423870
      dz2     :     0.019471  d :     0.120676
      dxz     :     0.021727
      dyz     :     0.016566
      dx2y2   :     0.030932
      dxy     :     0.031979
      f0      :     0.000889  f :     0.009592
      f+1     :     0.001529
      f-1     :     0.000785
      f+2     :     0.001046
      f-2     :     0.001405
      f+3     :     0.001745
      f-3     :     0.002192
  3 C s       :     2.753769  s :     2.753769
      pz      :     0.983728  p :     2.732020
      px      :     0.785304
      py      :     0.962988
      dz2     :     0.150619  d :     0.593980
      dxz     :     0.134109
      dyz     :     0.088817
      dx2y2   :     0.117911
      dxy     :     0.102524
      f0      :     0.014289  f :     0.095143
      f+1     :     0.012740
      f-1     :     0.012175
      f+2     :     0.016588
      f-2     :     0.010148
      f+3     :     0.015064
      f-3     :     0.014139
  4 C s       :     2.723806  s :     2.723806
      pz      :     0.953131  p :     2.799390
      px      :     0.846982
      py      :     0.999277
      dz2     :     0.120969  d :     0.533902
      dxz     :     0.056722
      dyz     :     0.177760
      dx2y2   :     0.084860
      dxy     :     0.093590
      f0      :     0.009233  f :     0.073666
      f+1     :     0.004254
      f-1     :     0.021290
      f+2     :     0.013504
      f-2     :     0.012540
      f+3     :     0.006695
      f-3     :     0.006149
  5 C s       :     2.785607  s :     2.785607
      pz      :     1.000155  p :     2.896249
      px      :     0.877770
      py      :     1.018323
      dz2     :     0.123787  d :     0.387935
      dxz     :     0.066723
      dyz     :     0.094967
      dx2y2   :     0.073000
      dxy     :     0.029459
      f0      :     0.006903  f :     0.051180
      f+1     :     0.004743
      f-1     :     0.015652
      f+2     :     0.007843
      f-2     :     0.006860
      f+3     :     0.003563
      f-3     :     0.005617
  6 C s       :     2.804276  s :     2.804276
      pz      :     1.012724  p :     2.846657
      px      :     1.038870
      py      :     0.795064
      dz2     :     0.086662  d :     0.532219
      dxz     :     0.108000
      dyz     :     0.115456
      dx2y2   :     0.101933
      dxy     :     0.120168
      f0      :     0.013166  f :     0.073628
      f+1     :     0.005346
      f-1     :     0.012899
      f+2     :     0.010229
      f-2     :     0.005145
      f+3     :     0.013646
      f-3     :     0.013197
  7 O s       :     3.293814  s :     3.293814
      pz      :     1.445396  p :     4.401762
      px      :     1.630090
      py      :     1.326276
      dz2     :     0.031897  d :     0.128088
      dxz     :     0.020844
      dyz     :     0.027524
      dx2y2   :     0.026093
      dxy     :     0.021729
      f0      :     0.001662  f :     0.009735
      f+1     :     0.001513
      f-1     :     0.001627
      f+2     :     0.001309
      f-2     :     0.001068
      f+3     :     0.001309
      f-3     :     0.001246
  8 C s       :     2.736748  s :     2.736748
      pz      :     0.826063  p :     2.724786
      px      :     0.934119
      py      :     0.964603
      dz2     :     0.195206  d :     0.668918
      dxz     :     0.135441
      dyz     :     0.151626
      dx2y2   :     0.072741
      dxy     :     0.113904
      f0      :     0.022280  f :     0.095633
      f+1     :     0.014478
      f-1     :     0.019692
      f+2     :     0.015407
      f-2     :     0.012253
      f+3     :     0.004531
      f-3     :     0.006993
  9 H s       :     0.801147  s :     0.801147
      pz      :     0.015109  p :     0.065510
      px      :     0.031692
      py      :     0.018709
 10 H s       :     0.797038  s :     0.797038
      pz      :     0.021719  p :     0.065836
      px      :     0.027348
      py      :     0.016769
 11 H s       :     0.798331  s :     0.798331
      pz      :     0.037131  p :     0.065951
      px      :     0.015390
      py      :     0.013430
 12 H s       :     0.798124  s :     0.798124
      pz      :     0.041388  p :     0.067623
      px      :     0.012674
      py      :     0.013561
 13 H s       :     0.793108  s :     0.793108
      pz      :     0.015012  p :     0.067125
      px      :     0.014555
      py      :     0.037558
 14 H s       :     0.813607  s :     0.813607
      pz      :     0.023452  p :     0.063186
      px      :     0.029925
      py      :     0.009809
 15 H s       :     0.806680  s :     0.806680
      pz      :     0.017171  p :     0.062883
      px      :     0.030494
      py      :     0.015219
 16 H s       :     0.789953  s :     0.789953
      pz      :     0.009743  p :     0.062048
      px      :     0.032407
      py      :     0.019899


                      *****************************
                      * MAYER POPULATION ANALYSIS *
                      *****************************

  NA   - Mulliken gross atomic population
  ZA   - Total nuclear charge
  QA   - Mulliken gross atomic charge
  VA   - Mayer's total valence
  BVA  - Mayer's bonded valence
  FA   - Mayer's free valence

  ATOM       NA         ZA         QA         VA         BVA        FA
  0 C      6.4223     6.0000    -0.4223     4.0374     3.7418     0.2956
  1 C      5.8998     6.0000     0.1002     3.8823     3.5205     0.3618
  2 O      8.2996     8.0000    -0.2996     2.3249     1.8706     0.4543
  3 C      5.9853     6.0000     0.0147     3.9564     3.6077     0.3487
  4 C      6.0822     6.0000    -0.0822     3.9762     3.5938     0.3824
  5 C      6.2082     6.0000    -0.2082     4.0965     3.7189     0.3776
  6 C      5.9953     6.0000     0.0047     4.0551     3.7512     0.3039
  7 O      8.3323     8.0000    -0.3323     2.3100     1.8884     0.4216
  8 C      5.8148     6.0000     0.1852     4.0186     3.6899     0.3287
  9 H      0.8641     1.0000     0.1359     0.9729     0.9237     0.0492
 10 H      0.8495     1.0000     0.1505     0.9699     0.9217     0.0482
 11 H      0.8542     1.0000     0.1458     0.9762     0.9278     0.0483
 12 H      0.8500     1.0000     0.1500     0.9613     0.9147     0.0467
 13 H      0.8565     1.0000     0.1435     0.9750     0.9275     0.0475
 14 H      0.8962     1.0000     0.1038     0.9651     0.9141     0.0510
 15 H      0.8771     1.0000     0.1229     0.9624     0.9132     0.0493
 16 H      0.9126     1.0000     0.0874     0.9753     0.9227     0.0527

  Mayer bond orders larger than 0.1
B(  0-C ,  1-C ) :   0.8969 B(  0-C ,  9-H ) :   0.9350 B(  0-C , 10-H ) :   0.9372 
B(  0-C , 11-H ) :   0.9339 B(  1-C ,  2-O ) :   0.9095 B(  1-C ,  3-C ) :   0.8763 
B(  1-C ,  8-C ) :   0.8560 B(  2-O ,  3-C ) :   0.8984 B(  3-C ,  4-C ) :   0.8791 
B(  3-C , 12-H ) :   0.9131 B(  4-C ,  5-C ) :   1.7723 B(  4-C ,  8-C ) :   0.9614 
B(  5-C ,  6-C ) :   0.9636 B(  5-C , 13-H ) :   0.9120 B(  6-C ,  7-O ) :   0.9303 
B(  6-C , 14-H ) :   0.9134 B(  6-C , 15-H ) :   0.9163 B(  7-O ,  8-C ) :   0.9652 
B(  8-C , 16-H ) :   0.9097 


-------
TIMINGS
-------

Total time                :  840.699 sec
Integral trafo            :    5.910 sec (  0.7%)
FC preparation            :    3.148 sec (  0.4%)
I/O of integrals          :    0.046 sec (  0.0%)
K(i,j) Operators          :    7.931 sec (  0.9%)
T(i,j) pair energies      :    0.752 sec (  0.1%)
V-calculation             :    0.017 sec (  0.0%)
V**(-1/2)                 :    0.108 sec (  0.0%)
Gamma(ia|P)               :    7.676 sec (  0.9%)
Gamma-Trafo               :    1.266 sec (  0.2%)
D(virtual)                :    2.948 sec (  0.4%)
D(internal)               :    2.936 sec (  0.3%)
W(virtual)                :    0.000 sec (  0.0%)
W(internal)               :    0.000 sec (  0.0%)
L(virtual)                :    9.951 sec (  1.2%)
L(internal)               :    0.165 sec (  0.0%)
G(D)                      :  100.244 sec ( 11.9%)
G(Z)                      :    0.000 sec (  0.0%)
Z-Vector Solution         :  696.893 sec ( 82.9%)
3-Index Derivative        :    0.000 sec (  0.0%)
2-Index Derivative        :    0.000 sec (  0.0%)
Separable Gradient (RIJ)  :    0.000 sec (  0.0%)
Separable Gradient (X)    :    0.000 sec (  0.0%)


---------------------------------------
MP2 TOTAL ENERGY:     -421.037881693 Eh
---------------------------------------

-------------------------   --------------------
FINAL SINGLE POINT ENERGY      -421.037881692767
-------------------------   --------------------


                            ***************************************
                            *     ORCA property calculations      *
                            ***************************************

                                    ---------------------
                                    Active property flags
                                    ---------------------
   (+) Dipole Moment


------------------------------------------------------------------------------
                       ORCA ELECTRIC PROPERTIES CALCULATION
------------------------------------------------------------------------------

Dipole Moment Calculation                       ... on
Quadrupole Moment Calculation                   ... off
Polarizability Calculation                      ... off
GBWName                                         ... dsgdb9nsd_069668.gbw
Electron density file                           ... dsgdb9nsd_069668.scfp.tmp

-------------
DIPOLE MOMENT
-------------
                                X             Y             Z
Electronic contribution:     -0.65632      -2.81090       0.27706
Nuclear contribution   :      1.48528       2.73520       0.06022
                        -----------------------------------------
Total Dipole Moment    :      0.82896      -0.07570       0.33728
                        -----------------------------------------
Magnitude (a.u.)       :      0.89815
Magnitude (Debye)      :      2.28290


                         *** MP2 UNRELAXED DENSITY ***

------------------------------------------------------------------------------
                       ORCA ELECTRIC PROPERTIES CALCULATION
------------------------------------------------------------------------------

Dipole Moment Calculation                       ... on
Quadrupole Moment Calculation                   ... off
Polarizability Calculation                      ... off
GBWName                                         ... dsgdb9nsd_069668.gbw
Electron density file                           ... dsgdb9nsd_069668.pmp2ur

-------------
DIPOLE MOMENT
-------------
                                X             Y             Z
Electronic contribution:     -0.70792      -2.80579       0.26624
Nuclear contribution   :      1.48528       2.73520       0.06022
                        -----------------------------------------
Total Dipole Moment    :      0.77736      -0.07059       0.32646
                        -----------------------------------------
Magnitude (a.u.)       :      0.84608
Magnitude (Debye)      :      2.15056


                           *** MP2 RELAXED DENSITY ***

------------------------------------------------------------------------------
                       ORCA ELECTRIC PROPERTIES CALCULATION
------------------------------------------------------------------------------

Dipole Moment Calculation                       ... on
Quadrupole Moment Calculation                   ... off
Polarizability Calculation                      ... off
GBWName                                         ... dsgdb9nsd_069668.gbw
Electron density file                           ... dsgdb9nsd_069668.pmp2re

-------------
DIPOLE MOMENT
-------------
                                X             Y             Z
Electronic contribution:     -0.77862      -2.80558       0.26084
Nuclear contribution   :      1.48528       2.73520       0.06022
                        -----------------------------------------
Total Dipole Moment    :      0.70666      -0.07038       0.32106
                        -----------------------------------------
Magnitude (a.u.)       :      0.77936
Magnitude (Debye)      :      1.98098


Timings for individual modules:

Sum of individual times         ...      968.269 sec (=  16.138 min)
GTO integral calculation        ...        0.496 sec (=   0.008 min)   0.1 %
SCF iterations                  ...      126.930 sec (=   2.116 min)  13.1 %
MP2 module                      ...      840.843 sec (=  14.014 min)  86.8 %
                             ****ORCA TERMINATED NORMALLY****
TOTAL RUN TIME: 0 days 0 hours 16 minutes 8 seconds 731 msec
