
                                 *****************
                                 * O   R   C   A *
                                 *****************

           --- An Ab Initio, DFT and Semiempirical electronic structure package ---

                  #######################################################
                  #                        -***-                        #
                  #  Department of molecular theory and spectroscopy    #
                  #              Directorship: Frank Neese              #
                  # Max Planck Institute for Chemical Energy Conversion #
                  #                  D-45470 Muelheim/Ruhr              #
                  #                       Germany                       #
                  #                                                     #
                  #                  All rights reserved                #
                  #                        -***-                        #
                  #######################################################


                         Program Version 3.0.3 - RELEASE   -


 With contributions from (in alphabetic order):
   Ute Becker             : Parallelization
   Dmytro Bykov           : SCF Hessian
   Dmitry Ganyushin       : Spin-Orbit,Spin-Spin,Magnetic field MRCI
   Andreas Hansen         : Spin unrestricted coupled pair/coupled cluster methods
   Dimitrios Liakos       : Extrapolation schemes; parallel MDCI
   Robert Izsak           : Overlap fitted RIJCOSX, COSX-SCS-MP3
   Christian Kollmar      : KDIIS, OOCD, Brueckner-CCSD(T), CCSD density
   Simone Kossmann        : Meta GGA functionals, TD-DFT gradient, OOMP2, MP2 Hessian
   Taras Petrenko         : DFT Hessian,TD-DFT gradient, ASA and ECA modules, normal mode analysis, Resonance Raman, ABS, FL, XAS/XES, NRVS
   Christoph Reimann      : Effective Core Potentials
   Michael Roemelt        : Restricted open shell CIS
   Christoph Riplinger    : Improved optimizer, TS searches, QM/MM, DLPNO-CCSD
   Barbara Sandhoefer     : DKH picture change effects
   Igor Schapiro          : Molecular dynamics
   Kantharuban Sivalingam : CASSCF convergence, NEVPT2
   Boris Wezisla          : Elementary symmetry handling
   Frank Wennmohs         : Technical directorship


 We gratefully acknowledge several colleagues who have allowed us to
 interface, adapt or use parts of their codes:
   Stefan Grimme, W. Hujo, H. Kruse, T. Risthaus : VdW corrections, initial TS optimization,
                                                   DFT functionals, gCP
   Ed Valeev                                     : LibInt (2-el integral package), F12 methods
   Garnet Chan, S. Sharma, R. Olivares           : DMRG
   Ulf Ekstrom                                   : XCFun DFT Library
   Mihaly Kallay                                 : mrcc  (arbitrary order and MRCC methods)
   Andreas Klamt, Michael Diedenhofen            : otool_cosmo (COSMO solvation model)
   Frank Weinhold                                : gennbo (NPA and NBO analysis)
   Christopher J. Cramer and Donald G. Truhlar   : smd solvation model


 Your calculation uses the libint2 library for the computation of 2-el integrals
 For citations please refer to: http://libint.valeyev.net

 This ORCA versions uses:
   CBLAS   interface :  Fast vector & matrix operations
   LAPACKE interface :  Fast linear algebra routines
   SCALAPACK package :  Parallel linear algebra routines


Your calculation utilizes the basis: Ahlrichs-TZV
Cite in your paper:
H - Kr: A. Schaefer, H. Horn and R. Ahlrichs, J. Chem. Phys. 97, 2571 (1992).

The def2-TZV basis will be loaded
Cite in your paper:
 	F. Weigend, R. Ahlrichs, Phys. Chem. Chem. Phys. 2005, 7, 3297.

================================================================================
                                        WARNINGS
                       Please study these warnings very carefully!
================================================================================
Now building the actual basis set


INFO   : the flag for use of LIBINT has been found!

================================================================================
                                       INPUT FILE
================================================================================
NAME = dsgdb9nsd_062194.inp
|  1> ! RI-MP2 RIJK def2-TZVP def2-TZVP/C def2-TZVP/JK TIGHTSCF
|  2> % maxcore 2000
|  3> % mp2 density relaxed end
|  4> *xyz 0 1
|  5>  N        0.0165733367     1.5148529927    -0.0165503540 
|  6>  C        0.0073360182     0.0504647575    -0.0528164473 
|  7>  C       -1.4244280138    -0.4942998194     0.1207391353 
|  8>  C       -2.0278754003    -0.1389222044     1.4817407294 
|  9>  C       -3.4753252317    -0.6511333983     1.6226979411 
| 10>  C       -4.0626395685    -0.3346613995     2.9187609729 
| 11>  C       -4.5225067732    -0.0627465057     3.9953586495 
| 12>  C        0.6169294960    -0.4992330989    -1.2848652941 
| 13>  N        1.0929931762    -0.8871920597    -2.2647907368 
| 14>  H        0.9704993977     1.8613586666    -0.0485411405 
| 15>  H       -0.4509273515     1.8812663578    -0.8416270346 
| 16>  H        0.6147822598    -0.3009015948     0.7904645735 
| 17>  H       -2.0486896121    -0.0952884668    -0.6897753600 
| 18>  H       -1.4017501130    -1.5816126817    -0.0147237348 
| 19>  H       -1.4175877718    -0.5728540228     2.2827055661 
| 20>  H       -2.0052447842     0.9444300239     1.6237974617 
| 21>  H       -4.0952514143    -0.2193042046     0.8256989905 
| 22>  H       -3.4991780438    -1.7380936388     1.4674177976 
| 23>  H       -4.9398719565     0.1725437968     4.9428008745 
| 24> *
| 25> 
| 26>                          ****END OF INPUT****
================================================================================

                       ****************************
                       * Single Point Calculation *
                       ****************************

---------------------------------
CARTESIAN COORDINATES (ANGSTROEM)
---------------------------------
  N      0.016573    1.514853   -0.016550
  C      0.007336    0.050465   -0.052816
  C     -1.424428   -0.494300    0.120739
  C     -2.027875   -0.138922    1.481741
  C     -3.475325   -0.651133    1.622698
  C     -4.062640   -0.334661    2.918761
  C     -4.522507   -0.062747    3.995359
  C      0.616929   -0.499233   -1.284865
  N      1.092993   -0.887192   -2.264791
  H      0.970499    1.861359   -0.048541
  H     -0.450927    1.881266   -0.841627
  H      0.614782   -0.300902    0.790465
  H     -2.048690   -0.095288   -0.689775
  H     -1.401750   -1.581613   -0.014724
  H     -1.417588   -0.572854    2.282706
  H     -2.005245    0.944430    1.623797
  H     -4.095251   -0.219304    0.825699
  H     -3.499178   -1.738094    1.467418
  H     -4.939872    0.172544    4.942801

----------------------------
CARTESIAN COORDINATES (A.U.)
----------------------------
  NO LB      ZA    FRAG    MASS        X           Y           Z
   0 N     7.0000    0    14.007          0.031319067488266          2.862657289354009         -0.031275636479448
   1 C     6.0000    0    12.011          0.013863065311462          0.095364571089748         -0.099808620763685
   2 C     6.0000    0    12.011         -2.691778843567401         -0.934091286712735          0.228163899363464
   3 C     6.0000    0    12.011         -3.832129140282930         -0.262524920236630          2.800084180042718
   4 C     6.0000    0    12.011         -6.567412914219419         -1.230463799436466          3.066454706756878
   5 C     6.0000    0    12.011         -7.677276165297007         -0.632418392649810          5.515658889158548
   6 C     6.0000    0    12.011         -8.546299240151910         -0.118573711633529          7.550133654348469
   7 C     6.0000    0    12.011          1.165827791378066         -0.943413833909823         -2.428043524829185
   8 N     7.0000    0    14.007          2.065457769262736         -1.676550021022513         -4.279834243193728
   9 H     1.0000    0     1.008          1.833978074788524          3.517458116874834         -0.091729461773193
  10 H     1.0000    0     1.008         -0.852129200629444          3.555078201201508         -1.590444602298265
  11 H     1.0000    0     1.008          1.161770103015225         -0.568621607432143          1.493761562481866
  12 H     1.0000    0     1.008         -3.871462300278362         -0.180069105973248         -1.303486524326940
  13 H     1.0000    0     1.008         -2.648923821763168         -2.988814818349764         -0.027823826440486
  14 H     1.0000    0     1.008         -2.678852659497656         -1.082537217807080          4.313688364306675
  15 H     1.0000    0     1.008         -3.789363473612021          1.784714097823702          3.068532499569482
  16 H     1.0000    0     1.008         -7.738903622580676         -0.414424886711433          1.560344961100245
  17 H     1.0000    0     1.008         -6.612488196612302         -3.284520972442644          2.773017761505886
  18 H     1.0000    0     1.008         -9.335005134422754          0.326060522058958          9.340539987311466

--------------------------------
INTERNAL COORDINATES (ANGSTROEM)
--------------------------------
 N      0   0   0   0.000000     0.000     0.000
 C      1   0   0   1.464866     0.000     0.000
 C      2   1   0   1.541700   110.874     0.000
 C      3   2   1   1.530610   112.594   296.768
 C      4   3   2   1.541863   111.979   178.162
 C      5   4   3   1.457694   112.793   179.378
 C      6   5   4   1.201864   178.670   356.392
 C      2   1   3   1.480445   112.904   124.182
 N      8   2   1   1.156461   177.771   348.884
 H      1   2   3   1.015413   110.260   174.982
 H      1   2   3   1.016645   109.713   291.931
 H      2   1   3   1.097074   107.316   241.870
 H      3   2   1   1.098110   108.449    59.178
 H      3   2   1   1.095953   108.508   174.271
 H      4   3   2   1.096491   109.768   299.267
 H      4   3   2   1.092861   109.729    56.111
 H      5   4   3   1.098177   109.449   301.439
 H      5   4   3   1.098255   109.649    57.222
 H      7   6   5   1.061698   179.315   179.668

---------------------------
INTERNAL COORDINATES (A.U.)
---------------------------
 N      0   0   0   0.000000     0.000     0.000
 C      1   0   0   2.768196     0.000     0.000
 C      2   1   0   2.913390   110.874     0.000
 C      3   2   1   2.892434   112.594   296.768
 C      4   3   2   2.913698   111.979   178.162
 C      5   4   3   2.754643   112.793   179.378
 C      6   5   4   2.271195   178.670   356.392
 C      2   1   3   2.797635   112.904   124.182
 N      8   2   1   2.185395   177.771   348.884
 H      1   2   3   1.918853   110.260   174.982
 H      1   2   3   1.921181   109.713   291.931
 H      2   1   3   2.073170   107.316   241.870
 H      3   2   1   2.075128   108.449    59.178
 H      3   2   1   2.071052   108.508   174.271
 H      4   3   2   2.072068   109.768   299.267
 H      4   3   2   2.065207   109.729    56.111
 H      5   4   3   2.075253   109.449   301.439
 H      5   4   3   2.075401   109.649    57.222
 H      7   6   5   2.006318   179.315   179.668

---------------------
BASIS SET INFORMATION
---------------------
There are 3 groups of distinct atoms

 Group   1 Type N   : 11s6p2d1f contracted to 5s3p2d1f pattern {62111/411/11/1}
 Group   2 Type C   : 11s6p2d1f contracted to 5s3p2d1f pattern {62111/411/11/1}
 Group   3 Type H   : 5s1p contracted to 3s1p pattern {311/1}

Atom   0N    basis set group =>   1
Atom   1C    basis set group =>   2
Atom   2C    basis set group =>   2
Atom   3C    basis set group =>   2
Atom   4C    basis set group =>   2
Atom   5C    basis set group =>   2
Atom   6C    basis set group =>   2
Atom   7C    basis set group =>   2
Atom   8N    basis set group =>   1
Atom   9H    basis set group =>   3
Atom  10H    basis set group =>   3
Atom  11H    basis set group =>   3
Atom  12H    basis set group =>   3
Atom  13H    basis set group =>   3
Atom  14H    basis set group =>   3
Atom  15H    basis set group =>   3
Atom  16H    basis set group =>   3
Atom  17H    basis set group =>   3
Atom  18H    basis set group =>   3
-------------------------------
AUXILIARY BASIS SET INFORMATION
-------------------------------
There are 3 groups of distinct atoms

 Group   1 Type N   : 14s10p6d2f1g contracted to 10s8p4d2f1g pattern {5111111111/31111111/3111/11/1}
 Group   2 Type C   : 14s10p6d2f1g contracted to 10s8p5d1f1g pattern {5111111111/31111111/21111/2/1}
 Group   3 Type H   : 4s2p2d contracted to 2s2p2d pattern {31/11/11}

Atom   0N    basis set group =>   1
Atom   1C    basis set group =>   2
Atom   2C    basis set group =>   2
Atom   3C    basis set group =>   2
Atom   4C    basis set group =>   2
Atom   5C    basis set group =>   2
Atom   6C    basis set group =>   2
Atom   7C    basis set group =>   2
Atom   8N    basis set group =>   1
Atom   9H    basis set group =>   3
Atom  10H    basis set group =>   3
Atom  11H    basis set group =>   3
Atom  12H    basis set group =>   3
Atom  13H    basis set group =>   3
Atom  14H    basis set group =>   3
Atom  15H    basis set group =>   3
Atom  16H    basis set group =>   3
Atom  17H    basis set group =>   3
Atom  18H    basis set group =>   3
------------------------------------------------------------------------------
                           ORCA GTO INTEGRAL CALCULATION
                           -- RI-GTO INTEGRALS CHOSEN --
------------------------------------------------------------------------------

                         BASIS SET STATISTICS AND STARTUP INFO

Gaussian basis set:
 # of primitive gaussian shells          ...  240
 # of primitive gaussian functions       ...  494
 # of contracted shells                  ...  139
 # of contracted basis functions         ...  339
 Highest angular momentum                ...    3
 Maximum contraction depth               ...    6
Auxiliary gaussian basis set:
 # of primitive gaussian shells          ...  377
 # of primitive gaussian functions       ... 1073
 # of contracted shells                  ...  285
 # of contracted aux-basis functions     ...  859
 Highest angular momentum                ...    4
 Maximum contraction depth               ...    5
Ratio of auxiliary to basis functions    ...  2.53
Integral package used                  ... LIBINT
 One Electron integrals                  ... done
 Ordering auxiliary basis shells         ... done
 Integral threshhold             Thresh  ...  2.500e-11
 Primitive cut-off               TCut    ...  2.500e-12
 Pre-screening matrix                    ... done
 Shell pair data                         ... 
 Ordering of the shell pairs             ... done (   0.002 sec) 8264 of 9730 pairs
 Determination of significant pairs      ... done (   0.000 sec)
 Creation of shell pair data             ... done (   0.002 sec)
 Storage of shell pair data              ... done (   0.002 sec)
 Shell pair data done in (   0.005 sec)
 Computing two index integrals           ... done
 Cholesky decomposition of the V-matrix  ... done


Timings:
 Total evaluation time                   ...   0.418 sec (  0.007 min)
 One electron matrix time                ...   0.092 sec (  0.002 min) = 21.9%
 Schwartz matrix evaluation time         ...   0.231 sec (  0.004 min) = 55.3%
 Two index repulsion integral time       ...   0.023 sec (  0.000 min) =  5.4%
 Cholesky decomposition of V             ...   0.037 sec (  0.001 min) =  8.8%
 Three index repulsion integral time     ...   0.000 sec (  0.000 min) =  0.0%

-------------------------------------------------------------------------------
                                 ORCA SCF
-------------------------------------------------------------------------------

------------
SCF SETTINGS
------------
Hamiltonian:
 Ab initio Hamiltonian  Method          .... Hartree-Fock(GTOs)
 RI-approximation to the Coulomb term is turned on
   Number of auxiliary basis functions  .... 859
   RI-JK (J+K treated both via RI)      .... on


General Settings:
 Integral files         IntName         .... dsgdb9nsd_062194
 Hartree-Fock type      HFTyp           .... RHF
 Total Charge           Charge          ....    0
 Multiplicity           Mult            ....    1
 Number of Electrons    NEL             ....   66
 Basis Dimension        Dim             ....  339
 Nuclear Repulsion      ENuc            ....    383.3535615227 Eh

Convergence Acceleration:
 DIIS                   CNVDIIS         .... on
   Start iteration      DIISMaxIt       ....    12
   Startup error        DIISStart       ....  0.200000
   # of expansion vecs  DIISMaxEq       ....     5
   Bias factor          DIISBfac        ....   1.050
   Max. coefficient     DIISMaxC        ....  10.000
 Newton-Raphson         CNVNR           .... off
 SOSCF                  CNVSOSCF        .... on
   Start iteration      SOSCFMaxIt      ....   150
   Startup grad/error   SOSCFStart      ....  0.003300
 Level Shifting         CNVShift        .... on
   Level shift para.    LevelShift      ....    0.2500
   Turn off err/grad.   ShiftErr        ....    0.0010
 Zerner damping         CNVZerner       .... off
 Static damping         CNVDamp         .... on
   Fraction old density DampFac         ....    0.7000
   Max. Damping (<1)    DampMax         ....    0.9800
   Min. Damping (>=0)   DampMin         ....    0.0000
   Turn off err/grad.   DampErr         ....    0.1000
 Fernandez-Rico         CNVRico         .... off

SCF Procedure:
 Maximum # iterations   MaxIter         ....   125
 SCF integral mode      SCFMode         .... Direct
   Integral package                     .... LIBINT
 Reset frequeny         DirectResetFreq ....    20
 Integral Threshold     Thresh          ....  2.500e-11 Eh
 Primitive CutOff       TCut            ....  2.500e-12 Eh

Convergence Tolerance:
 Convergence Check Mode ConvCheckMode   .... Total+1el-Energy
 Energy Change          TolE            ....  1.000e-08 Eh
 1-El. energy change                    ....  1.000e-05 Eh
 Orbital Gradient       TolG            ....  1.000e-05
 Orbital Rotation angle TolX            ....  1.000e-05
 DIIS Error             TolErr          ....  5.000e-07


Diagonalization of the overlap matrix:
Smallest eigenvalue                        ... 1.745e-05
Time for diagonalization                   ...    0.036 sec
Threshold for overlap eigenvalues          ... 1.000e-08
Number of eigenvalues below threshold      ... 0
Time for construction of square roots      ...    0.018 sec
Total time needed                          ...    0.054 sec

-------------------
DFT GRID GENERATION
-------------------

General Integration Accuracy     IntAcc      ...  4.340
Radial Grid Type                 RadialGrid  ... Gauss-Chebyshev
Angular Grid (max. acc.)         AngularGrid ... Lebedev-110
Angular grid pruning method      GridPruning ... 3 (G Style)
Weight generation scheme         WeightScheme... Becke
Basis function cutoff            BFCut       ...    1.0000e-11
Integration weight cutoff        WCut        ...    1.0000e-14
Grids for H and He will be reduced by one unit

# of grid points (after initial pruning)     ...  22936 (   0.0 sec)
# of grid points (after weights+screening)   ...  21296 (   0.1 sec)
nearest neighbour list constructed           ...    0.0 sec
Grid point re-assignment to atoms done       ...    0.0 sec
Grid point division into batches done        ...    0.0 sec
Reduced shell lists constructed in    1.3 sec

Total number of grid points                  ...    21296
Total number of batches                      ...      343
Average number of points per batch           ...       62
Average number of grid points per atom       ...     1121
Average number of shells per batch           ...    85.97 (61.85%)
Average number of basis functions per batch  ...   209.70 (61.86%)
Average number of large shells per batch     ...    64.83 (75.41%)
Average number of large basis fcns per batch ...   156.82 (74.78%)
Average number of aux-shells per batch       ...    85.97 (30.17%)
Average number of aux functions per batch    ...   209.70 (  inf%)
Maximum spatial batch extension              ...  20.45, 22.36, 20.95 au
Average spatial batch extension              ...   3.90,  3.88,  3.84 au

Time for grid setup =    1.464 sec

------------------------------
INITIAL GUESS: MODEL POTENTIAL
------------------------------
Loading Hartree-Fock densities                     ... done
Calculating cut-offs                               ... done
Setting up the integral package                    ... done
Initializing the effective Hamiltonian             ... done
Starting the Coulomb interaction                   ... done (   0.7 sec)
Reading the grid                                   ... done
Mapping shells                                     ... done
Starting the XC term evaluation                    ... done (   0.6 sec)
Transforming the Hamiltonian                       ... done (   0.0 sec)
Diagonalizing the Hamiltonian                      ... done (   0.0 sec)
Back transforming the eigenvectors                 ... done (   0.0 sec)
Now organizing SCF variables                       ... done
                      ------------------
                      INITIAL GUESS DONE (   3.0 sec)
                      ------------------
--------------
SCF ITERATIONS
--------------
ITER       Energy         Delta-E        Max-DP      RMS-DP      [F,P]     Damp
  0   -379.3979342767   0.000000000000 0.04831707  0.00113831  0.2730490 0.7000
  1   -379.2407863620   0.157147914659 0.07141351  0.00113878  0.2670108 0.7000
                               ***Turning on DIIS***
  2   -379.2913108024  -0.050524440360 0.04209848  0.00081693  0.1653857 0.7000
  3   -380.3187158976  -1.027405095260 0.02641397  0.00049624  0.1182647 0.7000
  4   -379.6910799447   0.627635952884 0.08638667  0.00129012  0.0779707 0.0000
  5   -379.7127878203  -0.021707875573 0.01746510  0.00027577  0.0296004 0.0000
  6   -379.7242722724  -0.011484452126 0.00715767  0.00012940  0.0152767 0.0000
  7   -379.7702921667  -0.046019894274 0.00338316  0.00006984  0.0106606 0.0000
  8   -379.7782189006  -0.007926733892 0.00205555  0.00005781  0.0075059 0.0000
                      *** Initiating the SOSCF procedure ***
                           *** Shutting down DIIS ***
                      *** Re-Reading the Fockian *** 
                      *** Removing any level shift *** 
ITER      Energy       Delta-E        Grad      Rot      Max-DP    RMS-DP
  9   -379.86115315  -0.0829342474  0.000228  0.000228  0.001234  0.000019
 10   -379.86342769  -0.0022745435  0.000061  0.000102  0.000302  0.000005
 11   -379.86342803  -0.0000003343  0.000048  0.000106  0.000297  0.000004
 12   -379.86342812  -0.0000000952  0.000016  0.000026  0.000036  0.000001
 13   -379.86342813  -0.0000000100  0.000011  0.000029  0.000035  0.000001
 14   -379.86342814  -0.0000000046  0.000003  0.000010  0.000014  0.000000
                  ***Gradient check signals convergence***
              ***Rediagonalizing the Fockian in SOSCF/NRSCF***

               *****************************************************
               *                     SUCCESS                       *
               *           SCF CONVERGED AFTER  15 CYCLES          *
               *****************************************************


----------------
TOTAL SCF ENERGY
----------------

Total Energy       :         -379.86342814 Eh          -10336.60938 eV

Components:
Nuclear Repulsion  :          383.35356152 Eh           10431.58074 eV
Electronic Energy  :         -763.21698966 Eh          -20768.19012 eV

One Electron Energy:        -1272.86426343 Eh          -34636.39749 eV
Two Electron Energy:          509.64727377 Eh           13868.20737 eV

Virial components:
Potential Energy   :         -759.15919756 Eh          -20657.77199 eV
Kinetic Energy     :          379.29576942 Eh           10321.16260 eV
Virial Ratio       :            2.00149661


---------------
SCF CONVERGENCE
---------------

  Last Energy change         ...   -6.7212e-10  Tolerance :   1.0000e-08
  Last MAX-Density change    ...    1.3567e-05  Tolerance :   1.0000e-07
  Last RMS-Density change    ...    1.6071e-07  Tolerance :   5.0000e-09
  Last Orbital Gradient      ...    8.3382e-07  Tolerance :   1.0000e-05
  Last Orbital Rotation      ...    3.3547e-06  Tolerance :   1.0000e-05

             **** THE GBW FILE WAS UPDATED (dsgdb9nsd_062194.gbw) ****
             **** DENSITY FILE WAS UPDATED (dsgdb9nsd_062194.scfp.tmp) ****
             **** ENERGY FILE WAS UPDATED (dsgdb9nsd_062194.en.tmp) ****
----------------
ORBITAL ENERGIES
----------------

  NO   OCC          E(Eh)            E(eV) 
   0   2.0000     -15.575628      -423.8344 
   1   2.0000     -15.575364      -423.8272 
   2   2.0000     -11.320081      -308.0351 
   3   2.0000     -11.274052      -306.7825 
   4   2.0000     -11.261022      -306.4280 
   5   2.0000     -11.254306      -306.2452 
   6   2.0000     -11.241948      -305.9090 
   7   2.0000     -11.236924      -305.7722 
   8   2.0000     -11.223399      -305.4042 
   9   2.0000      -1.241089       -33.7718 
  10   2.0000      -1.206047       -32.8182 
  11   2.0000      -1.105568       -30.0840 
  12   2.0000      -1.047643       -28.5078 
  13   2.0000      -0.990796       -26.9609 
  14   2.0000      -0.916797       -24.9473 
  15   2.0000      -0.830568       -22.6009 
  16   2.0000      -0.731082       -19.8938 
  17   2.0000      -0.722459       -19.6591 
  18   2.0000      -0.705378       -19.1943 
  19   2.0000      -0.661232       -17.9930 
  20   2.0000      -0.641959       -17.4686 
  21   2.0000      -0.620145       -16.8750 
  22   2.0000      -0.574319       -15.6280 
  23   2.0000      -0.565037       -15.3754 
  24   2.0000      -0.558060       -15.1856 
  25   2.0000      -0.543702       -14.7949 
  26   2.0000      -0.510373       -13.8880 
  27   2.0000      -0.500436       -13.6176 
  28   2.0000      -0.476099       -12.9553 
  29   2.0000      -0.460856       -12.5405 
  30   2.0000      -0.434225       -11.8159 
  31   2.0000      -0.389282       -10.5929 
  32   2.0000      -0.388972       -10.5845 
  33   0.0000       0.111874         3.0442 
  34   0.0000       0.134622         3.6632 
  35   0.0000       0.144326         3.9273 
  36   0.0000       0.158659         4.3173 
  37   0.0000       0.167173         4.5490 
  38   0.0000       0.168936         4.5970 
  39   0.0000       0.174681         4.7533 
  40   0.0000       0.184082         5.0091 
  41   0.0000       0.194018         5.2795 
  42   0.0000       0.202956         5.5227 
  43   0.0000       0.211952         5.7675 
  44   0.0000       0.221238         6.0202 
  45   0.0000       0.227648         6.1946 
  46   0.0000       0.243741         6.6325 
  47   0.0000       0.256893         6.9904 
  48   0.0000       0.258423         7.0320 
  49   0.0000       0.271260         7.3814 
  50   0.0000       0.301707         8.2099 
  51   0.0000       0.318587         8.6692 
  52   0.0000       0.331620         9.0238 
  53   0.0000       0.346209         9.4208 
  54   0.0000       0.361513         9.8373 
  55   0.0000       0.366626         9.9764 
  56   0.0000       0.378128        10.2894 
  57   0.0000       0.384054        10.4506 
  58   0.0000       0.390348        10.6219 
  59   0.0000       0.414712        11.2849 
  60   0.0000       0.427058        11.6208 
  61   0.0000       0.438293        11.9266 
  62   0.0000       0.446506        12.1500 
  63   0.0000       0.453589        12.3428 
  64   0.0000       0.468235        12.7413 
  65   0.0000       0.487573        13.2675 
  66   0.0000       0.500004        13.6058 
  67   0.0000       0.507568        13.8116 
  68   0.0000       0.513505        13.9732 
  69   0.0000       0.521734        14.1971 
  70   0.0000       0.534547        14.5458 
  71   0.0000       0.546844        14.8804 
  72   0.0000       0.559900        15.2357 
  73   0.0000       0.566621        15.4185 
  74   0.0000       0.569297        15.4914 
  75   0.0000       0.580965        15.8089 
  76   0.0000       0.587834        15.9958 
  77   0.0000       0.609559        16.5869 
  78   0.0000       0.617010        16.7897 
  79   0.0000       0.627861        17.0850 
  80   0.0000       0.636881        17.3304 
  81   0.0000       0.643205        17.5025 
  82   0.0000       0.651967        17.7409 
  83   0.0000       0.664843        18.0913 
  84   0.0000       0.670466        18.2443 
  85   0.0000       0.679172        18.4812 
  86   0.0000       0.685086        18.6421 
  87   0.0000       0.700658        19.0659 
  88   0.0000       0.716643        19.5008 
  89   0.0000       0.723819        19.6961 
  90   0.0000       0.730190        19.8695 
  91   0.0000       0.747275        20.3344 
  92   0.0000       0.778902        21.1950 
  93   0.0000       0.784409        21.3449 
  94   0.0000       0.801820        21.8186 
  95   0.0000       0.813964        22.1491 
  96   0.0000       0.834409        22.7054 
  97   0.0000       0.849741        23.1226 
  98   0.0000       0.870012        23.6742 
  99   0.0000       0.883446        24.0398 
 100   0.0000       0.904350        24.6086 
 101   0.0000       0.924507        25.1571 
 102   0.0000       0.948695        25.8153 
 103   0.0000       0.966294        26.2942 
 104   0.0000       0.978049        26.6141 
 105   0.0000       0.998678        27.1754 
 106   0.0000       1.011456        27.5231 
 107   0.0000       1.031909        28.0797 
 108   0.0000       1.054917        28.7057 
 109   0.0000       1.069832        29.1116 
 110   0.0000       1.092070        29.7167 
 111   0.0000       1.099370        29.9154 
 112   0.0000       1.146373        31.1944 
 113   0.0000       1.171957        31.8906 
 114   0.0000       1.193676        32.4816 
 115   0.0000       1.204380        32.7728 
 116   0.0000       1.217707        33.1355 
 117   0.0000       1.223017        33.2800 
 118   0.0000       1.270657        34.5763 
 119   0.0000       1.277283        34.7566 
 120   0.0000       1.283085        34.9145 
 121   0.0000       1.305023        35.5115 
 122   0.0000       1.327628        36.1266 
 123   0.0000       1.338444        36.4209 
 124   0.0000       1.372560        37.3493 
 125   0.0000       1.385355        37.6974 
 126   0.0000       1.413455        38.4621 
 127   0.0000       1.426436        38.8153 
 128   0.0000       1.433080        38.9961 
 129   0.0000       1.472407        40.0662 
 130   0.0000       1.483445        40.3666 
 131   0.0000       1.501531        40.8587 
 132   0.0000       1.532504        41.7016 
 133   0.0000       1.537440        41.8359 
 134   0.0000       1.571850        42.7722 
 135   0.0000       1.574618        42.8475 
 136   0.0000       1.592081        43.3227 
 137   0.0000       1.598786        43.5052 
 138   0.0000       1.635820        44.5129 
 139   0.0000       1.647628        44.8342 
 140   0.0000       1.684044        45.8252 
 141   0.0000       1.689746        45.9803 
 142   0.0000       1.714135        46.6440 
 143   0.0000       1.735241        47.2183 
 144   0.0000       1.742962        47.4284 
 145   0.0000       1.767245        48.0892 
 146   0.0000       1.783734        48.5379 
 147   0.0000       1.807416        49.1823 
 148   0.0000       1.825898        49.6852 
 149   0.0000       1.837445        49.9994 
 150   0.0000       1.855772        50.4981 
 151   0.0000       1.857706        50.5508 
 152   0.0000       1.870603        50.9017 
 153   0.0000       1.896146        51.5967 
 154   0.0000       1.912174        52.0329 
 155   0.0000       1.934313        52.6353 
 156   0.0000       1.941172        52.8220 
 157   0.0000       1.965894        53.4947 
 158   0.0000       1.979131        53.8549 
 159   0.0000       1.988937        54.1217 
 160   0.0000       2.048180        55.7338 
 161   0.0000       2.051620        55.8274 
 162   0.0000       2.087951        56.8160 
 163   0.0000       2.104937        57.2783 
 164   0.0000       2.110256        57.4230 
 165   0.0000       2.138230        58.1842 
 166   0.0000       2.172550        59.1181 
 167   0.0000       2.183279        59.4100 
 168   0.0000       2.202318        59.9281 
 169   0.0000       2.217374        60.3378 
 170   0.0000       2.250386        61.2361 
 171   0.0000       2.255758        61.3823 
 172   0.0000       2.269038        61.7437 
 173   0.0000       2.282329        62.1053 
 174   0.0000       2.305097        62.7249 
 175   0.0000       2.338373        63.6304 
 176   0.0000       2.359181        64.1966 
 177   0.0000       2.381769        64.8112 
 178   0.0000       2.404638        65.4335 
 179   0.0000       2.443923        66.5025 
 180   0.0000       2.482900        67.5631 
 181   0.0000       2.500585        68.0444 
 182   0.0000       2.508518        68.2602 
 183   0.0000       2.554447        69.5100 
 184   0.0000       2.583889        70.3112 
 185   0.0000       2.588196        70.4284 
 186   0.0000       2.603711        70.8506 
 187   0.0000       2.623803        71.3973 
 188   0.0000       2.644206        71.9525 
 189   0.0000       2.677381        72.8552 
 190   0.0000       2.711001        73.7701 
 191   0.0000       2.717040        73.9344 
 192   0.0000       2.738743        74.5250 
 193   0.0000       2.756552        75.0096 
 194   0.0000       2.767619        75.3108 
 195   0.0000       2.779196        75.6258 
 196   0.0000       2.790571        75.9353 
 197   0.0000       2.798819        76.1597 
 198   0.0000       2.819551        76.7239 
 199   0.0000       2.836370        77.1816 
 200   0.0000       2.851177        77.5845 
 201   0.0000       2.854688        77.6800 
 202   0.0000       2.879495        78.3550 
 203   0.0000       2.883586        78.4664 
 204   0.0000       2.899789        78.9073 
 205   0.0000       2.907400        79.1144 
 206   0.0000       2.917837        79.3984 
 207   0.0000       2.938483        79.9602 
 208   0.0000       2.945886        80.1616 
 209   0.0000       2.956161        80.4412 
 210   0.0000       2.968481        80.7765 
 211   0.0000       2.979177        81.0675 
 212   0.0000       3.001178        81.6662 
 213   0.0000       3.027235        82.3753 
 214   0.0000       3.033594        82.5483 
 215   0.0000       3.039470        82.7082 
 216   0.0000       3.054448        83.1157 
 217   0.0000       3.070317        83.5476 
 218   0.0000       3.102812        84.4318 
 219   0.0000       3.111567        84.6701 
 220   0.0000       3.132019        85.2266 
 221   0.0000       3.152535        85.7848 
 222   0.0000       3.190823        86.8267 
 223   0.0000       3.198748        87.0424 
 224   0.0000       3.219068        87.5953 
 225   0.0000       3.234349        88.0111 
 226   0.0000       3.265749        88.8656 
 227   0.0000       3.270706        89.0004 
 228   0.0000       3.297372        89.7261 
 229   0.0000       3.303731        89.8991 
 230   0.0000       3.307843        90.0110 
 231   0.0000       3.342087        90.9428 
 232   0.0000       3.344802        91.0167 
 233   0.0000       3.350560        91.1734 
 234   0.0000       3.370972        91.7288 
 235   0.0000       3.373624        91.8010 
 236   0.0000       3.390159        92.2509 
 237   0.0000       3.407906        92.7338 
 238   0.0000       3.425408        93.2101 
 239   0.0000       3.445488        93.7565 
 240   0.0000       3.448564        93.8402 
 241   0.0000       3.463619        94.2499 
 242   0.0000       3.500716        95.2593 
 243   0.0000       3.510384        95.5224 
 244   0.0000       3.518576        95.7453 
 245   0.0000       3.555193        96.7417 
 246   0.0000       3.570170        97.1493 
 247   0.0000       3.592285        97.7511 
 248   0.0000       3.598024        97.9072 
 249   0.0000       3.620716        98.5247 
 250   0.0000       3.638401        99.0059 
 251   0.0000       3.654923        99.4555 
 252   0.0000       3.666179        99.7618 
 253   0.0000       3.677354       100.0659 
 254   0.0000       3.682944       100.2180 
 255   0.0000       3.711434       100.9932 
 256   0.0000       3.715282       101.0980 
 257   0.0000       3.739677       101.7618 
 258   0.0000       3.752597       102.1134 
 259   0.0000       3.767054       102.5067 
 260   0.0000       3.787608       103.0660 
 261   0.0000       3.819317       103.9289 
 262   0.0000       3.836704       104.4020 
 263   0.0000       3.859925       105.0339 
 264   0.0000       3.876149       105.4754 
 265   0.0000       3.888269       105.8052 
 266   0.0000       3.917324       106.5958 
 267   0.0000       3.919827       106.6639 
 268   0.0000       3.998847       108.8142 
 269   0.0000       4.004025       108.9551 
 270   0.0000       4.075419       110.8978 
 271   0.0000       4.096966       111.4841 
 272   0.0000       4.120506       112.1247 
 273   0.0000       4.151585       112.9704 
 274   0.0000       4.185577       113.8953 
 275   0.0000       4.218834       114.8003 
 276   0.0000       4.246682       115.5581 
 277   0.0000       4.267493       116.1244 
 278   0.0000       4.305757       117.1656 
 279   0.0000       4.320408       117.5643 
 280   0.0000       4.344191       118.2114 
 281   0.0000       4.348297       118.3232 
 282   0.0000       4.358486       118.6004 
 283   0.0000       4.384254       119.3016 
 284   0.0000       4.407384       119.9310 
 285   0.0000       4.432872       120.6246 
 286   0.0000       4.502319       122.5143 
 287   0.0000       4.522669       123.0681 
 288   0.0000       4.583979       124.7364 
 289   0.0000       4.636028       126.1527 
 290   0.0000       4.657406       126.7345 
 291   0.0000       4.711221       128.1988 
 292   0.0000       4.726867       128.6246 
 293   0.0000       4.781507       130.1114 
 294   0.0000       4.856582       132.1543 
 295   0.0000       4.873105       132.6039 
 296   0.0000       4.927929       134.0958 
 297   0.0000       4.933795       134.2554 
 298   0.0000       4.946477       134.6005 
 299   0.0000       4.956063       134.8613 
 300   0.0000       4.989821       135.7799 
 301   0.0000       4.993892       135.8907 
 302   0.0000       5.004856       136.1891 
 303   0.0000       5.031233       136.9068 
 304   0.0000       5.062724       137.7637 
 305   0.0000       5.115349       139.1957 
 306   0.0000       5.142529       139.9353 
 307   0.0000       5.204709       141.6273 
 308   0.0000       5.255198       143.0012 
 309   0.0000       5.277219       143.6004 
 310   0.0000       5.294525       144.0713 
 311   0.0000       5.352947       145.6611 
 312   0.0000       5.368212       146.0765 
 313   0.0000       5.393624       146.7680 
 314   0.0000       5.426489       147.6623 
 315   0.0000       5.517750       150.1456 
 316   0.0000       5.549833       151.0186 
 317   0.0000       5.567086       151.4881 
 318   0.0000       5.584119       151.9516 
 319   0.0000       5.611803       152.7049 
 320   0.0000       5.655675       153.8987 
 321   0.0000       5.701332       155.1411 
 322   0.0000       5.763832       156.8418 
 323   0.0000       5.933255       161.4521 
 324   0.0000       5.969096       162.4274 
 325   0.0000       6.101954       166.0426 
 326   0.0000       6.173100       167.9786 
 327   0.0000       6.208885       168.9523 
 328   0.0000       6.232789       169.6028 
 329   0.0000       6.564983       178.6423 
 330   0.0000      23.481059       638.9521 
 331   0.0000      23.572987       641.4536 
 332   0.0000      23.643820       643.3810 
 333   0.0000      23.682048       644.4213 
 334   0.0000      23.714966       645.3170 
 335   0.0000      24.485865       666.2943 
 336   0.0000      24.685465       671.7257 
 337   0.0000      33.298033       906.0855 
 338   0.0000      33.432186       909.7360 

                    ********************************
                    * MULLIKEN POPULATION ANALYSIS *
                    ********************************

-----------------------
MULLIKEN ATOMIC CHARGES
-----------------------
   0 N :   -0.560111
   1 C :    0.285049
   2 C :   -0.228441
   3 C :   -0.112653
   4 C :   -0.372199
   5 C :   -0.088169
   6 C :   -0.042929
   7 C :   -0.187021
   8 N :   -0.168811
   9 H :    0.236622
  10 H :    0.232181
  11 H :    0.118353
  12 H :    0.100828
  13 H :    0.117400
  14 H :    0.090244
  15 H :    0.128928
  16 H :    0.125388
  17 H :    0.124226
  18 H :    0.201114
Sum of atomic charges:   -0.0000000

--------------------------------
MULLIKEN REDUCED ORBITAL CHARGES
--------------------------------
  0 N s       :     3.548945  s :     3.548945
      pz      :     1.561484  p :     3.957875
      px      :     1.271406
      py      :     1.124985
      dz2     :     0.011466  d :     0.050414
      dxz     :     0.004824
      dyz     :     0.008739
      dx2y2   :     0.017056
      dxy     :     0.008328
      f0      :     0.000101  f :     0.002877
      f+1     :     0.000700
      f-1     :     0.000601
      f+2     :     0.000193
      f-2     :     0.000191
      f+3     :     0.000388
      f-3     :     0.000703
  1 C s       :     2.959440  s :     2.959440
      pz      :     0.842004  p :     2.581799
      px      :     0.968072
      py      :     0.771723
      dz2     :     0.020383  d :     0.163610
      dxz     :     0.028923
      dyz     :     0.043406
      dx2y2   :     0.033112
      dxy     :     0.037786
      f0      :     0.001160  f :     0.010103
      f+1     :     0.001331
      f-1     :     0.001245
      f+2     :     0.001721
      f-2     :     0.000560
      f+3     :     0.002195
      f-3     :     0.001890
  2 C s       :     3.175587  s :     3.175587
      pz      :     0.978579  p :     2.941866
      px      :     0.929104
      py      :     1.034183
      dz2     :     0.023677  d :     0.104351
      dxz     :     0.027893
      dyz     :     0.014538
      dx2y2   :     0.026244
      dxy     :     0.011999
      f0      :     0.001056  f :     0.006637
      f+1     :     0.001412
      f-1     :     0.000953
      f+2     :     0.000673
      f-2     :     0.000561
      f+3     :     0.000710
      f-3     :     0.001271
  3 C s       :     3.096463  s :     3.096463
      pz      :     0.933411  p :     2.904731
      px      :     0.928320
      py      :     1.043000
      dz2     :     0.024174  d :     0.104871
      dxz     :     0.026814
      dyz     :     0.012837
      dx2y2   :     0.026738
      dxy     :     0.014308
      f0      :     0.001081  f :     0.006588
      f+1     :     0.001392
      f-1     :     0.000920
      f+2     :     0.000643
      f-2     :     0.000543
      f+3     :     0.000752
      f-3     :     0.001258
  4 C s       :     3.350622  s :     3.350622
      pz      :     0.935580  p :     2.909633
      px      :     0.946888
      py      :     1.027165
      dz2     :     0.022836  d :     0.105967
      dxz     :     0.029154
      dyz     :     0.013838
      dx2y2   :     0.025895
      dxy     :     0.014244
      f0      :     0.000863  f :     0.005977
      f+1     :     0.001374
      f-1     :     0.000769
      f+2     :     0.000541
      f-2     :     0.000470
      f+3     :     0.000733
      f-3     :     0.001228
  5 C s       :     3.402768  s :     3.402768
      pz      :     0.728834  p :     2.558502
      px      :     0.890450
      py      :     0.939218
      dz2     :     0.037341  d :     0.114894
      dxz     :     0.030667
      dyz     :     0.031876
      dx2y2   :     0.008392
      dxy     :     0.006617
      f0      :     0.003682  f :     0.012005
      f+1     :     0.002253
      f-1     :     0.002384
      f+2     :     0.001807
      f-2     :     0.001527
      f+3     :     0.000202
      f-3     :     0.000150
  6 C s       :     2.983552  s :     2.983552
      pz      :     1.036425  p :     3.036749
      px      :     0.996273
      py      :     1.004051
      dz2     :     0.001547  d :     0.014188
      dxz     :     0.001564
      dyz     :     0.007287
      dx2y2   :     0.002052
      dxy     :     0.001738
      f0      :     0.002454  f :     0.008440
      f+1     :     0.001924
      f-1     :     0.001704
      f+2     :     0.001105
      f-2     :     0.001050
      f+3     :     0.000104
      f-3     :     0.000099
  7 C s       :     3.249639  s :     3.249639
      pz      :     0.966222  p :     2.816837
      px      :     0.915768
      py      :     0.934847
      dz2     :     0.033291  d :     0.103616
      dxz     :     0.024972
      dyz     :     0.025223
      dx2y2   :     0.011222
      dxy     :     0.008907
      f0      :     0.004760  f :     0.016929
      f+1     :     0.002660
      f-1     :     0.002766
      f+2     :     0.003298
      f-2     :     0.002455
      f+3     :     0.000530
      f-3     :     0.000460
  8 N s       :     3.697380  s :     3.697380
      pz      :     1.226525  p :     3.413086
      px      :     1.101795
      py      :     1.084766
      dz2     :     0.017173  d :     0.055351
      dxz     :     0.012835
      dyz     :     0.013956
      dx2y2   :     0.006154
      dxy     :     0.005233
      f0      :     0.000884  f :     0.002994
      f+1     :     0.000455
      f-1     :     0.000472
      f+2     :     0.000598
      f-2     :     0.000420
      f+3     :     0.000086
      f-3     :     0.000077
  9 H s       :     0.726945  s :     0.726945
      pz      :     0.009558  p :     0.036434
      px      :     0.018562
      py      :     0.008314
 10 H s       :     0.731606  s :     0.731606
      pz      :     0.017396  p :     0.036213
      px      :     0.010380
      py      :     0.008436
 11 H s       :     0.858985  s :     0.858985
      pz      :     0.011080  p :     0.022661
      px      :     0.007311
      py      :     0.004271
 12 H s       :     0.877158  s :     0.877158
      pz      :     0.009850  p :     0.022014
      px      :     0.007386
      py      :     0.004778
 13 H s       :     0.860422  s :     0.860422
      pz      :     0.003890  p :     0.022178
      px      :     0.003491
      py      :     0.014798
 14 H s       :     0.887686  s :     0.887686
      pz      :     0.010029  p :     0.022070
      px      :     0.006977
      py      :     0.005064
 15 H s       :     0.848400  s :     0.848400
      pz      :     0.003816  p :     0.022672
      px      :     0.003591
      py      :     0.015265
 16 H s       :     0.852426  s :     0.852426
      pz      :     0.009556  p :     0.022186
      px      :     0.007436
      py      :     0.005194
 17 H s       :     0.853595  s :     0.853595
      pz      :     0.003691  p :     0.022179
      px      :     0.003666
      py      :     0.014821
 18 H s       :     0.774482  s :     0.774482
      pz      :     0.014442  p :     0.024404
      px      :     0.005707
      py      :     0.004254


                     *******************************
                     * LOEWDIN POPULATION ANALYSIS *
                     *******************************

----------------------
LOEWDIN ATOMIC CHARGES
----------------------
   0 N :   -0.123874
   1 C :   -0.294867
   2 C :   -0.210194
   3 C :   -0.223191
   4 C :   -0.224027
   5 C :   -0.113477
   6 C :   -0.110534
   7 C :   -0.159270
   8 N :    0.023262
   9 H :    0.155433
  10 H :    0.156530
  11 H :    0.161868
  12 H :    0.134938
  13 H :    0.138397
  14 H :    0.132579
  15 H :    0.138607
  16 H :    0.147055
  17 H :    0.146790
  18 H :    0.123974

-------------------------------
LOEWDIN REDUCED ORBITAL CHARGES
-------------------------------
  0 N s       :     3.083076  s :     3.083076
      pz      :     1.470751  p :     3.890633
      px      :     1.244851
      py      :     1.175031
      dz2     :     0.022941  d :     0.140382
      dxz     :     0.009635
      dyz     :     0.029831
      dx2y2   :     0.040304
      dxy     :     0.037671
      f0      :     0.000749  f :     0.009782
      f+1     :     0.001342
      f-1     :     0.001590
      f+2     :     0.001194
      f-2     :     0.000575
      f+3     :     0.002414
      f-3     :     0.001918
  1 C s       :     2.731730  s :     2.731730
      pz      :     0.970169  p :     2.883438
      px      :     1.009055
      py      :     0.904214
      dz2     :     0.092541  d :     0.612096
      dxz     :     0.118815
      dyz     :     0.140753
      dx2y2   :     0.135960
      dxy     :     0.124025
      f0      :     0.009281  f :     0.067603
      f+1     :     0.006876
      f-1     :     0.008306
      f+2     :     0.012132
      f-2     :     0.006619
      f+3     :     0.014432
      f-3     :     0.009957
  2 C s       :     2.773286  s :     2.773286
      pz      :     1.018729  p :     3.001593
      px      :     0.969756
      py      :     1.013109
      dz2     :     0.087469  d :     0.398034
      dxz     :     0.112532
      dyz     :     0.051962
      dx2y2   :     0.098641
      dxy     :     0.047430
      f0      :     0.006380  f :     0.037281
      f+1     :     0.005756
      f-1     :     0.005562
      f+2     :     0.004173
      f-2     :     0.005751
      f+3     :     0.004117
      f-3     :     0.005542
  3 C s       :     2.772438  s :     2.772438
      pz      :     1.001540  p :     3.013357
      px      :     0.981732
      py      :     1.030086
      dz2     :     0.086150  d :     0.399620
      dxz     :     0.110389
      dyz     :     0.051499
      dx2y2   :     0.097048
      dxy     :     0.054533
      f0      :     0.006456  f :     0.037775
      f+1     :     0.005833
      f-1     :     0.005460
      f+2     :     0.004062
      f-2     :     0.005899
      f+3     :     0.004477
      f-3     :     0.005587
  4 C s       :     2.760532  s :     2.760532
      pz      :     1.000003  p :     3.015869
      px      :     1.003441
      py      :     1.012424
      dz2     :     0.087098  d :     0.408863
      dxz     :     0.117501
      dyz     :     0.052666
      dx2y2   :     0.096629
      dxy     :     0.054968
      f0      :     0.006402  f :     0.038763
      f+1     :     0.006448
      f-1     :     0.005732
      f+2     :     0.004101
      f-2     :     0.006007
      f+3     :     0.004393
      f-3     :     0.005680
  5 C s       :     2.806959  s :     2.806959
      pz      :     1.107133  p :     2.908498
      px      :     0.913680
      py      :     0.887684
      dz2     :     0.110289  d :     0.353002
      dxz     :     0.094519
      dyz     :     0.098146
      dx2y2   :     0.028670
      dxy     :     0.021378
      f0      :     0.012726  f :     0.045018
      f+1     :     0.012080
      f-1     :     0.008599
      f+2     :     0.005296
      f-2     :     0.005276
      f+3     :     0.000588
      f-3     :     0.000452
  6 C s       :     2.884267  s :     2.884267
      pz      :     1.100326  p :     3.045976
      px      :     0.978077
      py      :     0.967574
      dz2     :     0.051631  d :     0.144833
      dxz     :     0.042292
      dyz     :     0.035052
      dx2y2   :     0.007776
      dxy     :     0.008082
      f0      :     0.009595  f :     0.035458
      f+1     :     0.010355
      f-1     :     0.006929
      f+2     :     0.003793
      f-2     :     0.004098
      f+3     :     0.000331
      f-3     :     0.000355
  7 C s       :     2.838714  s :     2.838714
      pz      :     1.080908  p :     2.836452
      px      :     0.883074
      py      :     0.872470
      dz2     :     0.136119  d :     0.425797
      dxz     :     0.112661
      dyz     :     0.098178
      dx2y2   :     0.045224
      dxy     :     0.033616
      f0      :     0.013997  f :     0.058308
      f+1     :     0.012469
      f-1     :     0.010971
      f+2     :     0.008956
      f-2     :     0.009062
      f+3     :     0.001454
      f-3     :     0.001399
  8 N s       :     3.307530  s :     3.307530
      pz      :     1.365269  p :     3.541019
      px      :     1.104276
      py      :     1.071473
      dz2     :     0.035861  d :     0.113202
      dxz     :     0.030208
      dyz     :     0.028139
      dx2y2   :     0.009407
      dxy     :     0.009587
      f0      :     0.003395  f :     0.014987
      f+1     :     0.003517
      f-1     :     0.002923
      f+2     :     0.002141
      f-2     :     0.002380
      f+3     :     0.000315
      f-3     :     0.000317
  9 H s       :     0.734460  s :     0.734460
      pz      :     0.030517  p :     0.110107
      px      :     0.056273
      py      :     0.023317
 10 H s       :     0.734000  s :     0.734000
      pz      :     0.054862  p :     0.109470
      px      :     0.030930
      py      :     0.023678
 11 H s       :     0.782611  s :     0.782611
      pz      :     0.024972  p :     0.055521
      px      :     0.018721
      py      :     0.011827
 12 H s       :     0.807264  s :     0.807264
      pz      :     0.023836  p :     0.057798
      px      :     0.018959
      py      :     0.015003
 13 H s       :     0.803469  s :     0.803469
      pz      :     0.012222  p :     0.058134
      px      :     0.011238
      py      :     0.034674
 14 H s       :     0.809606  s :     0.809606
      pz      :     0.023762  p :     0.057815
      px      :     0.018123
      py      :     0.015930
 15 H s       :     0.801258  s :     0.801258
      pz      :     0.011963  p :     0.060136
      px      :     0.011602
      py      :     0.036571
 16 H s       :     0.795842  s :     0.795842
      pz      :     0.022184  p :     0.057104
      px      :     0.019044
      py      :     0.015876
 17 H s       :     0.796090  s :     0.796090
      pz      :     0.010935  p :     0.057120
      px      :     0.011585
      py      :     0.034600
 18 H s       :     0.806043  s :     0.806043
      pz      :     0.038007  p :     0.069983
      px      :     0.017640
      py      :     0.014336


                      *****************************
                      * MAYER POPULATION ANALYSIS *
                      *****************************

  NA   - Mulliken gross atomic population
  ZA   - Total nuclear charge
  QA   - Mulliken gross atomic charge
  VA   - Mayer's total valence
  BVA  - Mayer's bonded valence
  FA   - Mayer's free valence

  ATOM       NA         ZA         QA         VA         BVA        FA
  0 N      7.5601     7.0000    -0.5601     2.8789     2.8789    -0.0000
  1 C      5.7150     6.0000     0.2850     3.8413     3.8413    -0.0000
  2 C      6.2284     6.0000    -0.2284     3.9501     3.9501     0.0000
  3 C      6.1127     6.0000    -0.1127     3.8060     3.8060     0.0000
  4 C      6.3722     6.0000    -0.3722     3.9377     3.9377     0.0000
  5 C      6.0882     6.0000    -0.0882     3.9892     3.9892    -0.0000
  6 C      6.0429     6.0000    -0.0429     3.5591     3.5591    -0.0000
  7 C      6.1870     6.0000    -0.1870     4.0198     4.0198     0.0000
  8 N      7.1688     7.0000    -0.1688     3.0563     3.0563     0.0000
  9 H      0.7634     1.0000     0.2366     0.9447     0.9447    -0.0000
 10 H      0.7678     1.0000     0.2322     0.9504     0.9504    -0.0000
 11 H      0.8816     1.0000     0.1184     0.9743     0.9743    -0.0000
 12 H      0.8992     1.0000     0.1008     0.9847     0.9847    -0.0000
 13 H      0.8826     1.0000     0.1174     0.9794     0.9794     0.0000
 14 H      0.9098     1.0000     0.0902     0.9857     0.9857     0.0000
 15 H      0.8711     1.0000     0.1289     0.9954     0.9954     0.0000
 16 H      0.8746     1.0000     0.1254     0.9580     0.9580     0.0000
 17 H      0.8758     1.0000     0.1242     0.9583     0.9583     0.0000
 18 H      0.7989     1.0000     0.2011     0.9668     0.9668    -0.0000

  Mayer bond orders larger than 0.1
B(  0-N ,  1-C ) :   0.9605 B(  0-N ,  9-H ) :   0.9417 B(  0-N , 10-H ) :   0.9355 
B(  1-C ,  2-C ) :   0.9885 B(  1-C ,  7-C ) :   0.9344 B(  1-C , 11-H ) :   0.9772 
B(  2-C ,  3-C ) :   0.9763 B(  2-C , 12-H ) :   0.9704 B(  2-C , 13-H ) :   0.9903 
B(  3-C ,  4-C ) :   0.9827 B(  3-C , 14-H ) :   0.9755 B(  3-C , 15-H ) :   0.9811 
B(  4-C ,  5-C ) :   1.1870 B(  4-C ,  6-C ) :  -0.2098 B(  4-C , 16-H ) :   0.9842 
B(  4-C , 17-H ) :   0.9835 B(  5-C ,  6-C ) :   2.8292 B(  6-C , 18-H ) :   0.9112 
B(  7-C ,  8-N ) :   3.0500 

-------
TIMINGS
-------

Total SCF time: 0 days 0 hours 2 min 43 sec 

Total time                  ....     163.538 sec
Sum of individual times     ....     167.848 sec  (102.6%)

Fock matrix formation       ....     161.818 sec  ( 98.9%)
Diagonalization             ....       0.726 sec  (  0.4%)
Density matrix formation    ....       0.056 sec  (  0.0%)
Population analysis         ....       0.179 sec  (  0.1%)
Initial guess               ....       3.004 sec  (  1.8%)
Orbital Transformation      ....       0.000 sec  (  0.0%)
Orbital Orthonormalization  ....       0.000 sec  (  0.0%)
DIIS solution               ....       0.223 sec  (  0.1%)
SOSCF solution              ....       0.379 sec  (  0.2%)

   <<< Auxbasis replaced with dsgdb9nsd_062194.AUXC.tmp (Dim=834) >>> 


------------------------------------------------------------------------------
                              ORCA MP2 CALCULATION
------------------------------------------------------------------------------

Freezing NCore=18 chemical core electrons

   <<< Use J-auxbasis for calculation of Separable RI-J derivative contributions dsgdb9nsd_062194.AUXJ.tmp (Dim=859) >>> 


---------------------
RI-MP2 ENERGY+DENSITY
---------------------
Dimension of the basis                    ...  339
Memory devoted to MP2                     ... 2000 MB   
Data format for buffers                   ... DOUBLE
Compression type for matrix containers    ... UNCOMPRESSED
Overall scaling of the MP2 energy         ...   1.000e+00 Eh
Calculating two index integrals           ... done (    0.019 sec)
Cholesky decomposition of V**-1           ... done (    0.126 sec)

-----------------
RI-TRANSFORMATION (AUX index driven)
-----------------

Dimension of the orbital-basis         ... 339
Dimension of the aux-basis             ... 834
Transformation of internal MOs         ...    0-  32
Transformation of internal/external MOs...    0-  32 to   33- 338
Number Format for Storage              ... Double (8 Byte)
Integral mode                          ... Direct

First Phase: integral generation and transformation of MO indices
  Aux angular momentum 0               ... done (    0.809 sec)
  Aux angular momentum 1               ... done (    1.106 sec)
  Aux angular momentum 2               ... done (    1.171 sec)
  Aux angular momentum 3               ... done (    0.885 sec)
  Aux angular momentum 4               ... done (    0.404 sec)
Closing buffer VIJ ( 0.00 GB; CompressionRatio= 1.94)
Closing buffer VIA ( 0.06 GB; CompressionRatio= 1.00)
  Phase 1 completed in     4.483 sec
Second Phase: sorting and transformation of aux index

IJ-Transformation
Memory available                       ... 1986 MB 
Max. # MO pairs treated in a batch     ... 33    
# of internal orbitals                 ... 33
# batches for internal orbitals        ... 1
Closing buffer IJV ( 0.00 GB; CompressionRatio= 1.00)
(ij|v) transformation done in     0.202 sec

IA-Transformation
Memory available                       ... 1986 MB 
Max. # MO pairs treated in a batch     ... 33    
# of internal orbitals                 ... 33
# batches for internal orbitals        ... 1
Closing buffer IAV ( 0.06 GB; CompressionRatio= 1.00)
(ia|v) transformation done in     1.560 sec

  Phase 2 completed in     1.784 sec
RI-Integral transformation completed in     6.267 sec
Opening buffers                              ... done
Frozen core precalculation                   ... done

Starting loop over batches of integrals:

Operator 0  - window                       ... (  9- 32)x( 33-338)
Operator 0  - Memory available             ...  2000 MB
Operator 0  - Memory needed per MO         ...   3.9 MB
Operator 0  - Number of orbitals per batch ... 24
Operator 0  - Number of batches            ... 1

OPERATOR  0   PASS   0:  MOs     9 ...   32
  Reading integrals       ... ok
  Internal MO  11
  Internal MO  14
  Internal MO  17
  Internal MO  20
  Internal MO  23
  Internal MO  26
  Internal MO  29
  Internal MO  32
Time spent in pair loops =    37.151 sec
Deleting buffer (Ka|jb)[aa] ...done

-----------------------------------------------
 RI-MP2 CORRELATION ENERGY:     -1.503064910 Eh
-----------------------------------------------


---------------------
MP2 DENSITY FORMATION
---------------------

Completing the external part of the density      ... done
Storing the unrelaxed density                    ... done

Calculating G(D)                                 ... done
Completing the Lagrangian                        ... done
Solving the Z-vector equations                   ... 

------------------------------------------------------------------------------
                           ORCA CP-SCF CALCULATION
------------------------------------------------------------------------------

Input orbitals are from        ... dsgdb9nsd_062194.gbw
Input Perturbation             ... dsgdb9nsd_062194.pin.tmp
Wavefunction output            ... dsgdb9nsd_062194.pout.tmp
Perturbation mode              ... Real perturbation
Solver                         ... POPLE
Max. number of iterations      ... 128
Convergence tolerance          ... 1.000e-08
Integral handling              ... Direct
Number of perturbations        ... 1
Number of operators            ... 1
Orbital ranges used for CP-SCF:
 Operator 0:  Orbitals   0... 32  to  33...338
Variables per vector in CP-SCF ... 10098
Number of vectors sought       ... 1
     CP-SCF ITERATION   0: 
     CP-SCF ITERATION   1:      0.001162187
     CP-SCF ITERATION   2:      0.000211322
     CP-SCF ITERATION   3:      0.000011971
     CP-SCF ITERATION   4:      0.000002427
     CP-SCF ITERATION   5:      0.000000379
     CP-SCF ITERATION   6:      0.000000106
     CP-SCF ITERATION   7:      0.000000022
     CP-SCF ITERATION   8:      0.000000003
done
Finalizing the relaxed density                   ... done
Transforming P to the AO basis                   ... done
Storing the relaxed density                      ... done

                *********************************************
                * UNRELAXED MP2 DENSITY POPULATION ANALYSIS *
                *********************************************

------------------------------------------------------------------------------
                           ORCA POPULATION ANALYSIS
------------------------------------------------------------------------------
Input electron density              ... dsgdb9nsd_062194.pmp2ur
BaseName (.gbw .S,...)              ... dsgdb9nsd_062194

                    ********************************
                    * MULLIKEN POPULATION ANALYSIS *
                    ********************************

-----------------------
MULLIKEN ATOMIC CHARGES
-----------------------
   0 N :   -0.557009
   1 C :    0.268111
   2 C :   -0.236277
   3 C :   -0.121055
   4 C :   -0.376332
   5 C :   -0.090180
   6 C :   -0.045741
   7 C :   -0.193074
   8 N :   -0.154507
   9 H :    0.237546
  10 H :    0.233020
  11 H :    0.122434
  12 H :    0.104602
  13 H :    0.121092
  14 H :    0.094101
  15 H :    0.132294
  16 H :    0.128923
  17 H :    0.127707
  18 H :    0.204345
Sum of atomic charges:   -0.0000000

--------------------------------
MULLIKEN REDUCED ORBITAL CHARGES
--------------------------------
  0 N s       :     3.543794  s :     3.543794
      pz      :     1.547816  p :     3.927415
      px      :     1.262849
      py      :     1.116750
      dz2     :     0.017396  d :     0.079766
      dxz     :     0.011092
      dyz     :     0.014926
      dx2y2   :     0.022099
      dxy     :     0.014252
      f0      :     0.000573  f :     0.006035
      f+1     :     0.001124
      f-1     :     0.001043
      f+2     :     0.000665
      f-2     :     0.000622
      f+3     :     0.000865
      f-3     :     0.001143
  1 C s       :     2.960128  s :     2.960128
      pz      :     0.841480  p :     2.572365
      px      :     0.961254
      py      :     0.769631
      dz2     :     0.024803  d :     0.185226
      dxz     :     0.033770
      dyz     :     0.047698
      dx2y2   :     0.036661
      dxy     :     0.042295
      f0      :     0.001820  f :     0.014169
      f+1     :     0.001849
      f-1     :     0.001755
      f+2     :     0.002390
      f-2     :     0.001159
      f+3     :     0.002826
      f-3     :     0.002370
  2 C s       :     3.171985  s :     3.171985
      pz      :     0.972042  p :     2.924434
      px      :     0.923836
      py      :     1.028556
      dz2     :     0.028131  d :     0.129339
      dxz     :     0.032614
      dyz     :     0.020394
      dx2y2   :     0.030778
      dxy     :     0.017422
      f0      :     0.001654  f :     0.010519
      f+1     :     0.001925
      f-1     :     0.001484
      f+2     :     0.001282
      f-2     :     0.001125
      f+3     :     0.001297
      f-3     :     0.001752
  3 C s       :     3.094062  s :     3.094062
      pz      :     0.927414  p :     2.886987
      px      :     0.922817
      py      :     1.036756
      dz2     :     0.028410  d :     0.129534
      dxz     :     0.031446
      dyz     :     0.018585
      dx2y2   :     0.031324
      dxy     :     0.019769
      f0      :     0.001668  f :     0.010471
      f+1     :     0.001893
      f-1     :     0.001448
      f+2     :     0.001254
      f-2     :     0.001102
      f+3     :     0.001348
      f-3     :     0.001757
  4 C s       :     3.345946  s :     3.345946
      pz      :     0.929215  p :     2.889139
      px      :     0.939387
      py      :     1.020537
      dz2     :     0.027338  d :     0.131242
      dxz     :     0.033947
      dyz     :     0.019855
      dx2y2   :     0.030454
      dxy     :     0.019648
      f0      :     0.001488  f :     0.010004
      f+1     :     0.001900
      f-1     :     0.001325
      f+2     :     0.001176
      f-2     :     0.001052
      f+3     :     0.001327
      f-3     :     0.001737
  5 C s       :     3.394691  s :     3.394691
      pz      :     0.725492  p :     2.545515
      px      :     0.886328
      py      :     0.933695
      dz2     :     0.040746  d :     0.134690
      dxz     :     0.034307
      dyz     :     0.035343
      dx2y2   :     0.012984
      dxy     :     0.011308
      f0      :     0.004223  f :     0.015284
      f+1     :     0.002765
      f-1     :     0.002917
      f+2     :     0.002290
      f-2     :     0.002008
      f+3     :     0.000566
      f-3     :     0.000514
  6 C s       :     2.977194  s :     2.977194
      pz      :     1.029795  p :     3.015508
      px      :     0.989100
      py      :     0.996613
      dz2     :     0.007954  d :     0.041612
      dxz     :     0.007530
      dyz     :     0.012420
      dx2y2   :     0.006976
      dxy     :     0.006731
      f0      :     0.002934  f :     0.011427
      f+1     :     0.002391
      f-1     :     0.002177
      f+2     :     0.001545
      f-2     :     0.001488
      f+3     :     0.000449
      f-3     :     0.000444
  7 C s       :     3.247592  s :     3.247592
      pz      :     0.959976  p :     2.806237
      px      :     0.913635
      py      :     0.932626
      dz2     :     0.035684  d :     0.119349
      dxz     :     0.027568
      dyz     :     0.027932
      dx2y2   :     0.015175
      dxy     :     0.012991
      f0      :     0.005222  f :     0.019895
      f+1     :     0.003138
      f-1     :     0.003242
      f+2     :     0.003704
      f-2     :     0.002868
      f+3     :     0.000897
      f-3     :     0.000825
  8 N s       :     3.684242  s :     3.684242
      pz      :     1.215882  p :     3.387282
      px      :     1.093844
      py      :     1.077556
      dz2     :     0.021280  d :     0.077284
      dxz     :     0.017131
      dyz     :     0.018211
      dx2y2   :     0.010785
      dxy     :     0.009878
      f0      :     0.001320  f :     0.005699
      f+1     :     0.000871
      f-1     :     0.000889
      f+2     :     0.000987
      f-2     :     0.000804
      f+3     :     0.000419
      f-3     :     0.000410
  9 H s       :     0.723854  s :     0.723854
      pz      :     0.010430  p :     0.038600
      px      :     0.019032
      py      :     0.009139
 10 H s       :     0.728588  s :     0.728588
      pz      :     0.018040  p :     0.038391
      px      :     0.011109
      py      :     0.009242
 11 H s       :     0.851948  s :     0.851948
      pz      :     0.011951  p :     0.025618
      px      :     0.008319
      py      :     0.005349
 12 H s       :     0.870242  s :     0.870242
      pz      :     0.010849  p :     0.025157
      px      :     0.008422
      py      :     0.005886
 13 H s       :     0.853613  s :     0.853613
      pz      :     0.005000  p :     0.025295
      px      :     0.004627
      py      :     0.015668
 14 H s       :     0.880685  s :     0.880685
      pz      :     0.011009  p :     0.025213
      px      :     0.008043
      py      :     0.006161
 15 H s       :     0.842000  s :     0.842000
      pz      :     0.004922  p :     0.025706
      px      :     0.004704
      py      :     0.016080
 16 H s       :     0.845875  s :     0.845875
      pz      :     0.010510  p :     0.025202
      px      :     0.008443
      py      :     0.006249
 17 H s       :     0.847094  s :     0.847094
      pz      :     0.004786  p :     0.025198
      px      :     0.004759
      py      :     0.015653
 18 H s       :     0.768599  s :     0.768599
      pz      :     0.015078  p :     0.027056
      px      :     0.006686
      py      :     0.005292


                     *******************************
                     * LOEWDIN POPULATION ANALYSIS *
                     *******************************

----------------------
LOEWDIN ATOMIC CHARGES
----------------------
   0 N :   -0.122610
   1 C :   -0.298930
   2 C :   -0.214367
   3 C :   -0.226787
   4 C :   -0.228131
   5 C :   -0.112460
   6 C :   -0.112352
   7 C :   -0.166282
   8 N :    0.031239
   9 H :    0.156026
  10 H :    0.157054
  11 H :    0.163266
  12 H :    0.136698
  13 H :    0.140162
  14 H :    0.134362
  15 H :    0.140321
  16 H :    0.148662
  17 H :    0.148388
  18 H :    0.125740

-------------------------------
LOEWDIN REDUCED ORBITAL CHARGES
-------------------------------
  0 N s       :     3.080188  s :     3.080188
      pz      :     1.457369  p :     3.857224
      px      :     1.235315
      py      :     1.164540
      dz2     :     0.029753  d :     0.171552
      dxz     :     0.016156
      dyz     :     0.035807
      dx2y2   :     0.046698
      dxy     :     0.043138
      f0      :     0.001250  f :     0.013646
      f+1     :     0.001898
      f-1     :     0.002178
      f+2     :     0.001707
      f-2     :     0.001072
      f+3     :     0.002954
      f-3     :     0.002587
  1 C s       :     2.730497  s :     2.730497
      pz      :     0.963039  p :     2.860491
      px      :     0.999406
      py      :     0.898045
      dz2     :     0.097943  d :     0.633252
      dxz     :     0.123374
      dyz     :     0.143879
      dx2y2   :     0.140583
      dxy     :     0.127473
      f0      :     0.010223  f :     0.074690
      f+1     :     0.007986
      f-1     :     0.009454
      f+2     :     0.013038
      f-2     :     0.007569
      f+3     :     0.015207
      f-3     :     0.011212
  2 C s       :     2.771623  s :     2.771623
      pz      :     1.009462  p :     2.976048
      px      :     0.961151
      py      :     1.005435
      dz2     :     0.092702  d :     0.423431
      dxz     :     0.116982
      dyz     :     0.057323
      dx2y2   :     0.103442
      dxy     :     0.052983
      f0      :     0.007201  f :     0.043265
      f+1     :     0.006858
      f-1     :     0.006364
      f+2     :     0.004967
      f-2     :     0.006494
      f+3     :     0.004885
      f-3     :     0.006496
  3 C s       :     2.770741  s :     2.770741
      pz      :     0.992675  p :     2.987664
      px      :     0.972774
      py      :     1.022214
      dz2     :     0.091247  d :     0.424669
      dxz     :     0.114768
      dyz     :     0.056809
      dx2y2   :     0.101985
      dxy     :     0.059860
      f0      :     0.007268  f :     0.043712
      f+1     :     0.006923
      f-1     :     0.006259
      f+2     :     0.004849
      f-2     :     0.006635
      f+3     :     0.005254
      f-3     :     0.006523
  4 C s       :     2.758815  s :     2.758815
      pz      :     0.991397  p :     2.989233
      px      :     0.993440
      py      :     1.004396
      dz2     :     0.092515  d :     0.434824
      dxz     :     0.121975
      dyz     :     0.058270
      dx2y2   :     0.101752
      dxy     :     0.060312
      f0      :     0.007394  f :     0.045259
      f+1     :     0.007614
      f-1     :     0.006645
      f+2     :     0.004978
      f-2     :     0.006834
      f+3     :     0.005169
      f-3     :     0.006625
  5 C s       :     2.802966  s :     2.802966
      pz      :     1.094722  p :     2.878931
      px      :     0.904690
      py      :     0.879519
      dz2     :     0.116243  d :     0.378538
      dxz     :     0.100231
      dyz     :     0.102496
      dx2y2   :     0.033287
      dxy     :     0.026281
      f0      :     0.014339  f :     0.052025
      f+1     :     0.013343
      f-1     :     0.009875
      f+2     :     0.006317
      f-2     :     0.006240
      f+3     :     0.001027
      f-3     :     0.000884
  6 C s       :     2.880594  s :     2.880594
      pz      :     1.089175  p :     3.013575
      px      :     0.967509
      py      :     0.956891
      dz2     :     0.059219  d :     0.176947
      dxz     :     0.049419
      dyz     :     0.041814
      dx2y2   :     0.013090
      dxy     :     0.013406
      f0      :     0.010885  f :     0.041236
      f+1     :     0.011397
      f-1     :     0.007973
      f+2     :     0.004617
      f-2     :     0.004895
      f+3     :     0.000724
      f-3     :     0.000745
  7 C s       :     2.835417  s :     2.835417
      pz      :     1.071084  p :     2.817426
      px      :     0.878418
      py      :     0.867923
      dz2     :     0.140018  d :     0.447525
      dxz     :     0.117267
      dyz     :     0.102894
      dx2y2   :     0.049130
      dxy     :     0.038215
      f0      :     0.015714  f :     0.065915
      f+1     :     0.013740
      f-1     :     0.012203
      f+2     :     0.010219
      f-2     :     0.010137
      f+3     :     0.001984
      f-3     :     0.001917
  8 N s       :     3.299787  s :     3.299787
      pz      :     1.351246  p :     3.506687
      px      :     1.093723
      py      :     1.061718
      dz2     :     0.042441  d :     0.142844
      dxz     :     0.036495
      dyz     :     0.034334
      dx2y2   :     0.014711
      dxy     :     0.014862
      f0      :     0.004253  f :     0.019443
      f+1     :     0.004306
      f-1     :     0.003666
      f+2     :     0.002803
      f-2     :     0.003030
      f+3     :     0.000692
      f-3     :     0.000693
  9 H s       :     0.729703  s :     0.729703
      pz      :     0.031397  p :     0.114271
      px      :     0.058375
      py      :     0.024498
 10 H s       :     0.729229  s :     0.729229
      pz      :     0.056731  p :     0.113716
      px      :     0.032090
      py      :     0.024895
 11 H s       :     0.775837  s :     0.775837
      pz      :     0.027067  p :     0.060897
      px      :     0.020475
      py      :     0.013355
 12 H s       :     0.799945  s :     0.799945
      pz      :     0.026026  p :     0.063357
      px      :     0.020814
      py      :     0.016517
 13 H s       :     0.796222  s :     0.796222
      pz      :     0.013594  p :     0.063616
      px      :     0.012620
      py      :     0.037403
 14 H s       :     0.802290  s :     0.802290
      pz      :     0.025905  p :     0.063348
      px      :     0.019986
      py      :     0.017458
 15 H s       :     0.794182  s :     0.794182
      pz      :     0.013336  p :     0.065496
      px      :     0.012971
      py      :     0.039190
 16 H s       :     0.788914  s :     0.788914
      pz      :     0.024294  p :     0.062424
      px      :     0.020798
      py      :     0.017332
 17 H s       :     0.789167  s :     0.789167
      pz      :     0.012327  p :     0.062445
      px      :     0.012906
      py      :     0.037212
 18 H s       :     0.799708  s :     0.799708
      pz      :     0.039816  p :     0.074552
      px      :     0.019055
      py      :     0.015682


                      *****************************
                      * MAYER POPULATION ANALYSIS *
                      *****************************

  NA   - Mulliken gross atomic population
  ZA   - Total nuclear charge
  QA   - Mulliken gross atomic charge
  VA   - Mayer's total valence
  BVA  - Mayer's bonded valence
  FA   - Mayer's free valence

  ATOM       NA         ZA         QA         VA         BVA        FA
  0 N      7.5570     7.0000    -0.5570     3.1131     2.7269     0.3862
  1 C      5.7319     6.0000     0.2681     3.9353     3.6184     0.3169
  2 C      6.2363     6.0000    -0.2363     4.0645     3.7418     0.3227
  3 C      6.1211     6.0000    -0.1211     3.9190     3.6022     0.3168
  4 C      6.3763     6.0000    -0.3763     4.0516     3.7405     0.3111
  5 C      6.0902     6.0000    -0.0902     4.1034     3.6827     0.4207
  6 C      6.0457     6.0000    -0.0457     3.7133     3.2896     0.4237
  7 C      6.1931     6.0000    -0.1931     4.1194     3.6776     0.4418
  8 N      7.1545     7.0000    -0.1545     3.2478     2.7668     0.4810
  9 H      0.7625     1.0000     0.2375     0.9506     0.9016     0.0490
 10 H      0.7670     1.0000     0.2330     0.9565     0.9071     0.0495
 11 H      0.8776     1.0000     0.1224     0.9815     0.9318     0.0497
 12 H      0.8954     1.0000     0.1046     0.9933     0.9419     0.0514
 13 H      0.8789     1.0000     0.1211     0.9874     0.9371     0.0504
 14 H      0.9059     1.0000     0.0941     0.9945     0.9428     0.0517
 15 H      0.8677     1.0000     0.1323     1.0028     0.9530     0.0498
 16 H      0.8711     1.0000     0.1289     0.9664     0.9157     0.0507
 17 H      0.8723     1.0000     0.1277     0.9668     0.9160     0.0508
 18 H      0.7957     1.0000     0.2043     0.9707     0.9297     0.0410

  Mayer bond orders larger than 0.1
B(  0-N ,  1-C ) :   0.8973 B(  0-N ,  9-H ) :   0.9005 B(  0-N , 10-H ) :   0.8939 
B(  1-C ,  2-C ) :   0.9276 B(  1-C ,  7-C ) :   0.8800 B(  1-C , 11-H ) :   0.9368 
B(  2-C ,  3-C ) :   0.9167 B(  2-C , 12-H ) :   0.9292 B(  2-C , 13-H ) :   0.9494 
B(  3-C ,  4-C ) :   0.9229 B(  3-C , 14-H ) :   0.9343 B(  3-C , 15-H ) :   0.9406 
B(  4-C ,  5-C ) :   1.1256 B(  4-C ,  6-C ) :  -0.2042 B(  4-C , 16-H ) :   0.9443 
B(  4-C , 17-H ) :   0.9437 B(  5-C ,  6-C ) :   2.5916 B(  6-C , 18-H ) :   0.8797 
B(  7-C ,  8-N ) :   2.7666 


                *******************************************
                * RELAXED MP2 DENSITY POPULATION ANALYSIS *
                *******************************************

------------------------------------------------------------------------------
[...]
      f0      :     0.001619  f :     0.009948
      f+1     :     0.001722
      f-1     :     0.001404
      f+2     :     0.001274
      f-2     :     0.001090
      f+3     :     0.001259
      f-3     :     0.001579
  3 C s       :     3.127017  s :     3.127017
      pz      :     0.937845  p :     2.917882
      px      :     0.926817
      py      :     1.053219
      dz2     :     0.024594  d :     0.117544
      dxz     :     0.029498
      dyz     :     0.017443
      dx2y2   :     0.027511
      dxy     :     0.018499
      f0      :     0.001632  f :     0.009912
      f+1     :     0.001681
      f-1     :     0.001374
      f+2     :     0.001253
      f-2     :     0.001061
      f+3     :     0.001316
      f-3     :     0.001595
  4 C s       :     3.315284  s :     3.315284
      pz      :     0.954257  p :     2.938656
      px      :     0.945452
      py      :     1.038947
      dz2     :     0.024575  d :     0.122362
      dxz     :     0.032867
      dyz     :     0.019159
      dx2y2   :     0.027049
      dxy     :     0.018712
      f0      :     0.001481  f :     0.009560
      f+1     :     0.001701
      f-1     :     0.001284
      f+2     :     0.001183
      f-2     :     0.001019
      f+3     :     0.001304
      f-3     :     0.001589
  5 C s       :     3.273021  s :     3.273021
      pz      :     0.784658  p :     2.612577
      px      :     0.887292
      py      :     0.940627
      dz2     :     0.033639  d :     0.112881
      dxz     :     0.027276
      dyz     :     0.030139
      dx2y2   :     0.011687
      dxy     :     0.010140
      f0      :     0.004000  f :     0.014564
      f+1     :     0.002609
      f-1     :     0.002776
      f+2     :     0.002192
      f-2     :     0.001923
      f+3     :     0.000555
      f-3     :     0.000509
  6 C s       :     3.030866  s :     3.030866
      pz      :     1.045605  p :     3.044112
      px      :     0.993580
      py      :     1.004927
      dz2     :     0.005939  d :     0.030342
      dxz     :     0.004766
      dyz     :     0.008246
      dx2y2   :     0.005755
      dxy     :     0.005637
      f0      :     0.002671  f :     0.010541
      f+1     :     0.002212
      f-1     :     0.001995
      f+2     :     0.001416
      f-2     :     0.001376
      f+3     :     0.000437
      f-3     :     0.000432
  7 C s       :     3.210985  s :     3.210985
      pz      :     0.997237  p :     2.877642
      px      :     0.933256
      py      :     0.947148
      dz2     :     0.028497  d :     0.097888
      dxz     :     0.023043
      dyz     :     0.022861
      dx2y2   :     0.012489
      dxy     :     0.010998
      f0      :     0.004829  f :     0.018699
      f+1     :     0.002997
      f-1     :     0.003061
      f+2     :     0.003441
      f-2     :     0.002718
      f+3     :     0.000859
      f-3     :     0.000794
  8 N s       :     3.611365  s :     3.611365
      pz      :     1.210295  p :     3.373247
      px      :     1.087023
      py      :     1.075930
      dz2     :     0.018585  d :     0.068517
      dxz     :     0.015264
      dyz     :     0.015972
      dx2y2   :     0.009685
      dxy     :     0.009011
      f0      :     0.001182  f :     0.005218
      f+1     :     0.000791
      f-1     :     0.000811
      f+2     :     0.000894
      f-2     :     0.000736
      f+3     :     0.000406
      f-3     :     0.000398
  9 H s       :     0.719933  s :     0.719933
      pz      :     0.010952  p :     0.037850
      px      :     0.017732
      py      :     0.009166
 10 H s       :     0.724793  s :     0.724793
      pz      :     0.017411  p :     0.037654
      px      :     0.011062
      py      :     0.009181
 11 H s       :     0.838520  s :     0.838520
      pz      :     0.010914  p :     0.024250
      px      :     0.008004
      py      :     0.005332
 12 H s       :     0.851418  s :     0.851418
      pz      :     0.010079  p :     0.024034
      px      :     0.008046
      py      :     0.005909
 13 H s       :     0.836472  s :     0.836472
      pz      :     0.005195  p :     0.024172
      px      :     0.004854
      py      :     0.014122
 14 H s       :     0.860719  s :     0.860719
      pz      :     0.010208  p :     0.024078
      px      :     0.007707
      py      :     0.006162
 15 H s       :     0.827987  s :     0.827987
      pz      :     0.005112  p :     0.024556
      px      :     0.004939
      py      :     0.014505
 16 H s       :     0.831863  s :     0.831863
      pz      :     0.009753  p :     0.024077
      px      :     0.008099
      py      :     0.006226
 17 H s       :     0.833192  s :     0.833192
      pz      :     0.005015  p :     0.024080
      px      :     0.004977
      py      :     0.014087
 18 H s       :     0.783417  s :     0.783417
      pz      :     0.013611  p :     0.025649
      px      :     0.006609
      py      :     0.005429


                     *******************************
                     * LOEWDIN POPULATION ANALYSIS *
                     *******************************

----------------------
LOEWDIN ATOMIC CHARGES
----------------------
   0 N :   -0.122490
   1 C :   -0.322545
   2 C :   -0.233567
   3 C :   -0.245963
   4 C :   -0.249293
   5 C :   -0.112711
   6 C :   -0.106224
   7 C :   -0.183669
   8 N :    0.057630
   9 H :    0.161639
  10 H :    0.162340
  11 H :    0.170314
  12 H :    0.145113
  13 H :    0.149060
  14 H :    0.143095
  15 H :    0.147659
  16 H :    0.156853
  17 H :    0.156500
  18 H :    0.126258

-------------------------------
LOEWDIN REDUCED ORBITAL CHARGES
-------------------------------
  0 N s       :     3.084428  s :     3.084428
      pz      :     1.451044  p :     3.857562
      px      :     1.238776
      py      :     1.167743
      dz2     :     0.028347  d :     0.166884
      dxz     :     0.015485
      dyz     :     0.036447
      dx2y2   :     0.043590
      dxy     :     0.043014
      f0      :     0.001265  f :     0.013615
      f+1     :     0.001869
      f-1     :     0.002167
      f+2     :     0.001744
      f-2     :     0.001066
      f+3     :     0.002947
      f-3     :     0.002558
  1 C s       :     2.736636  s :     2.736636
      pz      :     0.980174  p :     2.880666
      px      :     1.000499
      py      :     0.899994
      dz2     :     0.096526  d :     0.631230
      dxz     :     0.121764
      dyz     :     0.144815
      dx2y2   :     0.140197
      dxy     :     0.127928
      f0      :     0.010234  f :     0.074012
      f+1     :     0.007686
      f-1     :     0.009364
      f+2     :     0.012862
      f-2     :     0.007492
      f+3     :     0.015144
      f-3     :     0.011230
  2 C s       :     2.778058  s :     2.778058
      pz      :     1.013798  p :     2.999287
      px      :     0.968119
      py      :     1.017371
      dz2     :     0.089645  d :     0.413313
      dxz     :     0.115861
      dyz     :     0.056996
      dx2y2   :     0.098916
      dxy     :     0.051895
      f0      :     0.007242  f :     0.042908
      f+1     :     0.006704
      f-1     :     0.006350
      f+2     :     0.004923
      f-2     :     0.006531
      f+3     :     0.004845
      f-3     :     0.006313
  3 C s       :     2.776544  s :     2.776544
      pz      :     0.999453  p :     3.011713
      px      :     0.977858
      py      :     1.034402
      dz2     :     0.087727  d :     0.414286
      dxz     :     0.113388
      dyz     :     0.056130
      dx2y2   :     0.097888
      dxy     :     0.059153
      f0      :     0.007312  f :     0.043421
      f+1     :     0.006741
      f-1     :     0.006235
      f+2     :     0.004842
      f-2     :     0.006658
      f+3     :     0.005241
      f-3     :     0.006393
  4 C s       :     2.764132  s :     2.764132
      pz      :     1.004670  p :     3.013861
      px      :     0.994952
      py      :     1.014239
      dz2     :     0.089002  d :     0.426018
      dxz     :     0.120198
      dyz     :     0.058113
      dx2y2   :     0.098691
      dxy     :     0.060014
      f0      :     0.007543  f :     0.045281
      f+1     :     0.007374
      f-1     :     0.006682
      f+2     :     0.005027
      f-2     :     0.006902
      f+3     :     0.005190
      f-3     :     0.006562
  5 C s       :     2.805758  s :     2.805758
      pz      :     1.088522  p :     2.888106
      px      :     0.910092
      py      :     0.889491
      dz2     :     0.112831  d :     0.366330
      dxz     :     0.097430
      dyz     :     0.098551
      dx2y2   :     0.032040
      dxy     :     0.025478
      f0      :     0.014351  f :     0.052517
      f+1     :     0.013720
      f-1     :     0.009981
      f+2     :     0.006255
      f-2     :     0.006307
      f+3     :     0.001004
      f-3     :     0.000899
  6 C s       :     2.887604  s :     2.887604
      pz      :     1.086044  p :     3.010745
      px      :     0.968029
      py      :     0.956672
      dz2     :     0.056110  d :     0.165446
      dxz     :     0.046405
      dyz     :     0.038247
      dx2y2   :     0.012131
      dxy     :     0.012552
      f0      :     0.011223  f :     0.042430
      f+1     :     0.011709
      f-1     :     0.008205
      f+2     :     0.004751
      f-2     :     0.005048
      f+3     :     0.000737
      f-3     :     0.000758
  7 C s       :     2.841009  s :     2.841009
      pz      :     1.070397  p :     2.843884
      px      :     0.893319
      py      :     0.880169
      dz2     :     0.134736  d :     0.432640
      dxz     :     0.114702
      dyz     :     0.099720
      dx2y2   :     0.046681
      dxy     :     0.036801
      f0      :     0.015366  f :     0.066136
      f+1     :     0.014139
      f-1     :     0.012496
      f+2     :     0.009924
      f-2     :     0.010350
      f+3     :     0.001948
      f-3     :     0.001913
  8 N s       :     3.300241  s :     3.300241
      pz      :     1.340612  p :     3.483633
      px      :     1.085233
      py      :     1.057788
      dz2     :     0.041210  d :     0.138668
      dxz     :     0.035869
      dyz     :     0.033169
      dx2y2   :     0.014049
      dxy     :     0.014371
      f0      :     0.004358  f :     0.019828
      f+1     :     0.004366
      f-1     :     0.003734
      f+2     :     0.002877
      f-2     :     0.003087
      f+3     :     0.000701
      f-3     :     0.000705
  9 H s       :     0.723789  s :     0.723789
      pz      :     0.031829  p :     0.114573
      px      :     0.057959
      py      :     0.024784
 10 H s       :     0.723672  s :     0.723672
      pz      :     0.056893  p :     0.113988
      px      :     0.032015
      py      :     0.025079
 11 H s       :     0.768239  s :     0.768239
      pz      :     0.026908  p :     0.061448
      px      :     0.020761
      py      :     0.013779
 12 H s       :     0.790510  s :     0.790510
      pz      :     0.026189  p :     0.064377
      px      :     0.021172
      py      :     0.017015
 13 H s       :     0.786348  s :     0.786348
      pz      :     0.014165  p :     0.064592
      px      :     0.013256
      py      :     0.037172
 14 H s       :     0.792547  s :     0.792547
      pz      :     0.026047  p :     0.064357
      px      :     0.020345
      py      :     0.017965
 15 H s       :     0.785944  s :     0.785944
      pz      :     0.013917  p :     0.066397
      px      :     0.013596
      py      :     0.038884
 16 H s       :     0.779917  s :     0.779917
      pz      :     0.024421  p :     0.063230
      px      :     0.021073
      py      :     0.017736
 17 H s       :     0.780246  s :     0.780246
      pz      :     0.013026  p :     0.063254
      px      :     0.013429
      py      :     0.036800
 18 H s       :     0.799658  s :     0.799658
      pz      :     0.038346  p :     0.074084
      px      :     0.019419
      py      :     0.016319


                      *****************************
                      * MAYER POPULATION ANALYSIS *
                      *****************************

  NA   - Mulliken gross atomic population
  ZA   - Total nuclear charge
  QA   - Mulliken gross atomic charge
  VA   - Mayer's total valence
  BVA  - Mayer's bonded valence
  FA   - Mayer's free valence

  ATOM       NA         ZA         QA         VA         BVA        FA
  0 N      7.5275     7.0000    -0.5275     3.1525     2.7729     0.3795
  1 C      5.8649     6.0000     0.1351     3.9994     3.6847     0.3147
  2 C      6.2782     6.0000    -0.2782     4.0435     3.7254     0.3181
  3 C      6.1724     6.0000    -0.1724     3.9034     3.5899     0.3134
  4 C      6.3859     6.0000    -0.3859     4.0900     3.7818     0.3082
  5 C      6.0130     6.0000    -0.0130     4.1290     3.7200     0.4090
  6 C      6.1159     6.0000    -0.1159     3.8392     3.4204     0.4187
  7 C      6.2052     6.0000    -0.2052     4.2564     3.8291     0.4273
  8 N      7.0583     7.0000    -0.0583     3.3768     2.9079     0.4689
  9 H      0.7578     1.0000     0.2422     0.9446     0.8959     0.0487
 10 H      0.7624     1.0000     0.2376     0.9510     0.9019     0.0491
 11 H      0.8628     1.0000     0.1372     0.9695     0.9207     0.0488
 12 H      0.8755     1.0000     0.1245     0.9835     0.9331     0.0504
 13 H      0.8606     1.0000     0.1394     0.9782     0.9288     0.0494
 14 H      0.8848     1.0000     0.1152     0.9845     0.9338     0.0507
 15 H      0.8525     1.0000     0.1475     0.9995     0.9508     0.0488
 16 H      0.8559     1.0000     0.1441     0.9582     0.9084     0.0498
 17 H      0.8573     1.0000     0.1427     0.9586     0.9086     0.0500
 18 H      0.8091     1.0000     0.1909     0.9734     0.9326     0.0409

  Mayer bond orders larger than 0.1
B(  0-N ,  1-C ) :   0.9336 B(  0-N ,  9-H ) :   0.8921 B(  0-N , 10-H ) :   0.8879 
B(  1-C ,  2-C ) :   0.9294 B(  1-C ,  7-C ) :   0.9149 B(  1-C , 11-H ) :   0.9179 
B(  2-C ,  3-C ) :   0.9213 B(  2-C , 12-H ) :   0.9159 B(  2-C , 13-H ) :   0.9330 
B(  3-C ,  4-C ) :   0.9292 B(  3-C , 14-H ) :   0.9236 B(  3-C , 15-H ) :   0.9257 
B(  4-C ,  5-C ) :   1.1310 B(  4-C ,  6-C ) :  -0.1224 B(  4-C , 16-H ) :   0.9227 
B(  4-C , 17-H ) :   0.9219 B(  5-C ,  6-C ) :   2.6120 B(  6-C , 18-H ) :   0.8936 
B(  7-C ,  8-N ) :   2.8766 


-------
TIMINGS
-------

Total time                :  801.758 sec
Integral trafo            :    6.275 sec (  0.8%)
FC preparation            :    3.779 sec (  0.5%)
I/O of integrals          :    0.052 sec (  0.0%)
K(i,j) Operators          :    9.293 sec (  1.2%)
T(i,j) pair energies      :    0.817 sec (  0.1%)
V-calculation             :    0.019 sec (  0.0%)
V**(-1/2)                 :    0.126 sec (  0.0%)
Gamma(ia|P)               :    9.114 sec (  1.1%)
Gamma-Trafo               :    1.519 sec (  0.2%)
D(virtual)                :    3.480 sec (  0.4%)
D(internal)               :    2.975 sec (  0.4%)
W(virtual)                :    0.000 sec (  0.0%)
W(internal)               :    0.000 sec (  0.0%)
L(virtual)                :    9.452 sec (  1.2%)
L(internal)               :    0.173 sec (  0.0%)
G(D)                      :   84.513 sec ( 10.5%)
G(Z)                      :    0.000 sec (  0.0%)
Z-Vector Solution         :  669.443 sec ( 83.5%)
3-Index Derivative        :    0.000 sec (  0.0%)
2-Index Derivative        :    0.000 sec (  0.0%)
Separable Gradient (RIJ)  :    0.000 sec (  0.0%)
Separable Gradient (X)    :    0.000 sec (  0.0%)


---------------------------------------
MP2 TOTAL ENERGY:     -381.366493046 Eh
---------------------------------------

-------------------------   --------------------
FINAL SINGLE POINT ENERGY      -381.366493046439
-------------------------   --------------------


                            ***************************************
                            *     ORCA property calculations      *
                            ***************************************

                                    ---------------------
                                    Active property flags
                                    ---------------------
   (+) Dipole Moment


------------------------------------------------------------------------------
                       ORCA ELECTRIC PROPERTIES CALCULATION
------------------------------------------------------------------------------

Dipole Moment Calculation                       ... on
Quadrupole Moment Calculation                   ... off
Polarizability Calculation                      ... off
GBWName                                         ... dsgdb9nsd_062194.gbw
Electron density file                           ... dsgdb9nsd_062194.scfp.tmp

-------------
DIPOLE MOMENT
-------------
                                X             Y             Z
Electronic contribution:      2.81606      -1.11754      -2.49397
Nuclear contribution   :     -3.16762       1.59750       3.21438
                        -----------------------------------------
Total Dipole Moment    :     -0.35156       0.47996       0.72041
                        -----------------------------------------
Magnitude (a.u.)       :      0.93432
Magnitude (Debye)      :      2.37485


                         *** MP2 UNRELAXED DENSITY ***

------------------------------------------------------------------------------
                       ORCA ELECTRIC PROPERTIES CALCULATION
------------------------------------------------------------------------------

Dipole Moment Calculation                       ... on
Quadrupole Moment Calculation                   ... off
Polarizability Calculation                      ... off
GBWName                                         ... dsgdb9nsd_062194.gbw
Electron density file                           ... dsgdb9nsd_062194.pmp2ur

-------------
DIPOLE MOMENT
-------------
                                X             Y             Z
Electronic contribution:      2.82638      -1.12222      -2.51495
Nuclear contribution   :     -3.16762       1.59750       3.21438
                        -----------------------------------------
Total Dipole Moment    :     -0.34124       0.47528       0.69944
                        -----------------------------------------
Magnitude (a.u.)       :      0.91189
Magnitude (Debye)      :      2.31785


                           *** MP2 RELAXED DENSITY ***

------------------------------------------------------------------------------
                       ORCA ELECTRIC PROPERTIES CALCULATION
------------------------------------------------------------------------------

Dipole Moment Calculation                       ... on
Quadrupole Moment Calculation                   ... off
Polarizability Calculation                      ... off
GBWName                                         ... dsgdb9nsd_062194.gbw
Electron density file                           ... dsgdb9nsd_062194.pmp2re

-------------
DIPOLE MOMENT
-------------
                                X             Y             Z
Electronic contribution:      2.86038      -1.14958      -2.57638
Nuclear contribution   :     -3.16762       1.59750       3.21438
                        -----------------------------------------
Total Dipole Moment    :     -0.30724       0.44792       0.63800
                        -----------------------------------------
Magnitude (a.u.)       :      0.83790
Magnitude (Debye)      :      2.12977


Timings for individual modules:

Sum of individual times         ...      969.270 sec (=  16.154 min)
GTO integral calculation        ...        0.595 sec (=   0.010 min)   0.1 %
SCF iterations                  ...      166.763 sec (=   2.779 min)  17.2 %
MP2 module                      ...      801.912 sec (=  13.365 min)  82.7 %
                             ****ORCA TERMINATED NORMALLY****
TOTAL RUN TIME: 0 days 0 hours 16 minutes 9 seconds 786 msec
