
                                 *****************
                                 * O   R   C   A *
                                 *****************

           --- An Ab Initio, DFT and Semiempirical electronic structure package ---

                  #######################################################
                  #                        -***-                        #
                  #  Department of molecular theory and spectroscopy    #
                  #              Directorship: Frank Neese              #
                  # Max Planck Institute for Chemical Energy Conversion #
                  #                  D-45470 Muelheim/Ruhr              #
                  #                       Germany                       #
                  #                                                     #
                  #                  All rights reserved                #
                  #                        -***-                        #
                  #######################################################


                         Program Version 3.0.3 - RELEASE   -


 With contributions from (in alphabetic order):
   Ute Becker             : Parallelization
   Dmytro Bykov           : SCF Hessian
   Dmitry Ganyushin       : Spin-Orbit,Spin-Spin,Magnetic field MRCI
   Andreas Hansen         : Spin unrestricted coupled pair/coupled cluster methods
   Dimitrios Liakos       : Extrapolation schemes; parallel MDCI
   Robert Izsak           : Overlap fitted RIJCOSX, COSX-SCS-MP3
   Christian Kollmar      : KDIIS, OOCD, Brueckner-CCSD(T), CCSD density
   Simone Kossmann        : Meta GGA functionals, TD-DFT gradient, OOMP2, MP2 Hessian
   Taras Petrenko         : DFT Hessian,TD-DFT gradient, ASA and ECA modules, normal mode analysis, Resonance Raman, ABS, FL, XAS/XES, NRVS
   Christoph Reimann      : Effective Core Potentials
   Michael Roemelt        : Restricted open shell CIS
   Christoph Riplinger    : Improved optimizer, TS searches, QM/MM, DLPNO-CCSD
   Barbara Sandhoefer     : DKH picture change effects
   Igor Schapiro          : Molecular dynamics
   Kantharuban Sivalingam : CASSCF convergence, NEVPT2
   Boris Wezisla          : Elementary symmetry handling
   Frank Wennmohs         : Technical directorship


 We gratefully acknowledge several colleagues who have allowed us to
 interface, adapt or use parts of their codes:
   Stefan Grimme, W. Hujo, H. Kruse, T. Risthaus : VdW corrections, initial TS optimization,
                                                   DFT functionals, gCP
   Ed Valeev                                     : LibInt (2-el integral package), F12 methods
   Garnet Chan, S. Sharma, R. Olivares           : DMRG
   Ulf Ekstrom                                   : XCFun DFT Library
   Mihaly Kallay                                 : mrcc  (arbitrary order and MRCC methods)
   Andreas Klamt, Michael Diedenhofen            : otool_cosmo (COSMO solvation model)
   Frank Weinhold                                : gennbo (NPA and NBO analysis)
   Christopher J. Cramer and Donald G. Truhlar   : smd solvation model


 Your calculation uses the libint2 library for the computation of 2-el integrals
 For citations please refer to: http://libint.valeyev.net

 This ORCA versions uses:
   CBLAS   interface :  Fast vector & matrix operations
   LAPACKE interface :  Fast linear algebra routines
   SCALAPACK package :  Parallel linear algebra routines


Your calculation utilizes the basis: Ahlrichs-TZV
Cite in your paper:
H - Kr: A. Schaefer, H. Horn and R. Ahlrichs, J. Chem. Phys. 97, 2571 (1992).

The def2-TZV basis will be loaded
Cite in your paper:
 	F. Weigend, R. Ahlrichs, Phys. Chem. Chem. Phys. 2005, 7, 3297.

================================================================================
                                        WARNINGS
                       Please study these warnings very carefully!
================================================================================
Now building the actual basis set


INFO   : the flag for use of LIBINT has been found!

================================================================================
                                       INPUT FILE
================================================================================
NAME = dsgdb9nsd_118087.inp
|  1> ! RI-MP2 RIJK def2-TZVP def2-TZVP/C def2-TZVP/JK TIGHTSCF
|  2> % maxcore 2000
|  3> % mp2 density relaxed end
|  4> *xyz 0 1
|  5>  C        0.1082390273     1.5375715159    -0.2266541043 
|  6>  C        0.0059214007     0.0375674908    -0.0510013518 
|  7>  C        1.1550457881    -0.8033592360    -0.4715566238 
|  8>  N        0.8496475974    -0.6229355520     0.9642710036 
|  9>  C       -1.4006892135    -0.5764672853    -0.1085633669 
| 10>  O       -1.3362171932    -1.9643555325     0.1792032320 
| 11>  C       -2.3891173300     0.1333660581     0.8286479160 
| 12>  C       -3.7636155731    -0.5228854929     0.8268271817 
| 13>  O       -4.6091153082     0.2440943823     1.6750384808 
| 14>  H        1.1551704301     1.8533936244    -0.2769632471 
| 15>  H       -0.3789050317     1.8571908910    -1.1549520464 
| 16>  H       -0.3681321533     2.0754549036     0.5989116777 
| 17>  H        0.9829774438    -1.8083235263    -0.8416013125 
| 18>  H        2.0281828489    -0.3003633351    -0.8783584618 
| 19>  H        1.4905945358     0.0376512663     1.3944870965 
| 20>  H       -1.7689032144    -0.4986598456    -1.1414349667 
| 21>  H       -0.7162904288    -2.0345695625     0.9229249724 
| 22>  H       -1.9926255347     0.1300917840     1.8518738660 
| 23>  H       -2.5098839122     1.1814834725     0.5325995794 
| 24>  H       -4.1574581541    -0.5531720809    -0.2033886851 
| 25>  H       -3.6742807957    -1.5608909986     1.1716686563 
| 26>  H       -5.4529041994    -0.2116673813     1.7430434740 
| 27> *
| 28> 
| 29>                          ****END OF INPUT****
================================================================================

                       ****************************
                       * Single Point Calculation *
                       ****************************

---------------------------------
CARTESIAN COORDINATES (ANGSTROEM)
---------------------------------
  C      0.108239    1.537572   -0.226654
  C      0.005921    0.037567   -0.051001
  C      1.155046   -0.803359   -0.471557
  N      0.849648   -0.622936    0.964271
  C     -1.400689   -0.576467   -0.108563
  O     -1.336217   -1.964356    0.179203
  C     -2.389117    0.133366    0.828648
  C     -3.763616   -0.522885    0.826827
  O     -4.609115    0.244094    1.675038
  H      1.155170    1.853394   -0.276963
  H     -0.378905    1.857191   -1.154952
  H     -0.368132    2.075455    0.598912
  H      0.982977   -1.808324   -0.841601
  H      2.028183   -0.300363   -0.878358
  H      1.490595    0.037651    1.394487
  H     -1.768903   -0.498660   -1.141435
  H     -0.716290   -2.034570    0.922925
  H     -1.992626    0.130092    1.851874
  H     -2.509884    1.181483    0.532600
  H     -4.157458   -0.553172   -0.203389
  H     -3.674281   -1.560891    1.171669
  H     -5.452904   -0.211667    1.743043

----------------------------
CARTESIAN COORDINATES (A.U.)
----------------------------
  NO LB      ZA    FRAG    MASS        X           Y           Z
   0 C     6.0000    0    12.011          0.204542118599026          2.905589076369146         -0.428314184256223
   1 C     6.0000    0    12.011          0.011189825652210          0.070992269150606         -0.096378587361772
   2 C     6.0000    0    12.011          2.182720211648238         -1.518128943196210         -0.891112875618532
   3 N     7.0000    0    14.007          1.605601269430182         -1.177177592363061          1.822208115685393
   4 C     6.0000    0    12.011         -2.646919012252554         -1.089365294382048         -0.205155031617411
   5 O     8.0000    0    15.999         -2.525084550584942         -3.712093986078047          0.338645030793553
   6 C     6.0000    0    12.011         -4.514777455505163          0.252025325369630          1.565917622684582
   7 C     6.0000    0    12.011         -7.112202706520079         -0.988110380981425          1.562476933494945
   8 O     8.0000    0    15.999         -8.709965652162044          0.461271533375675          3.165363992491511
   9 H     1.0000    0     1.008          2.182955750893023          3.502406368471708         -0.523384686180559
  10 H     1.0000    0     1.008         -0.716026740677750          3.509582162403194         -2.182543065507910
  11 H     1.0000    0     1.008         -0.695668950827715          3.922041371107932          1.131779049260312
  12 H     1.0000    0     1.008          1.857558164603968         -3.417236226233744         -1.590395994573676
  13 H     1.0000    0     1.008          3.832710133937187         -0.567604444010216         -1.659856940214331
  14 H     1.0000    0     1.008          2.816815449381477          0.071150581902339          2.635198709672017
  15 H     1.0000    0     1.008         -3.342742632628987         -0.942330542167456         -2.156999486744524
  16 H     1.0000    0     1.008         -1.353592742781020         -3.844779273536978          1.744075439992830
  17 H     1.0000    0     1.008         -3.765516548041398          0.245837844033239          3.499534441305982
  18 H     1.0000    0     1.008         -4.742993221992852          2.232680194779280          1.006467344107647
  19 H     1.0000    0     1.008         -7.856457324486777         -1.045343737832331         -0.384348913577350
  20 H     1.0000    0     1.008         -6.943384442999261         -2.949656512256860          2.214132880106507
  21 H     1.0000    0     1.008        -10.304495571375119         -0.399993382141284          3.293874805378688

--------------------------------
INTERNAL COORDINATES (ANGSTROEM)
--------------------------------
 C      0   0   0   0.000000     0.000     0.000
 C      1   0   0   1.513716     0.000     0.000
 C      2   1   0   1.484760   118.428     0.000
 N      2   1   3   1.476115   118.985    69.429
 C      2   1   3   1.535873   116.983   208.645
 O      5   2   1   1.418873   109.990   184.682
 C      5   2   1   1.535975   112.441   308.867
 C      7   5   2   1.523127   112.388   183.075
 O      8   7   5   1.422178   107.663   182.553
 H      1   2   3   1.094687   110.847   337.487
 H      1   2   3   1.095994   110.930    96.937
 H      1   2   3   1.094444   111.719   216.972
 H      3   2   1   1.084663   119.908   211.221
 H      3   2   1   1.086674   117.758     0.707
 H      4   2   1   1.016009   111.155   354.992
 H      5   2   1   1.099299   108.281    69.318
 H      6   5   2   0.970753   104.782    42.318
 H      7   5   2   1.097364   109.576   304.445
 H      7   5   2   1.095801   110.371    62.192
 H      8   7   5   1.103347   109.576   303.460
 H      8   7   5   1.097430   109.493    60.828
 H      9   8   7   0.961417   107.957   185.257

---------------------------
INTERNAL COORDINATES (A.U.)
---------------------------
 C      0   0   0   0.000000     0.000     0.000
 C      1   0   0   2.860508     0.000     0.000
 C      2   1   0   2.805789   118.428     0.000
 N      2   1   3   2.789453   118.985    69.429
 C      2   1   3   2.902379   116.983   208.645
 O      5   2   1   2.681281   109.990   184.682
 C      5   2   1   2.902572   112.441   308.867
 C      7   5   2   2.878292   112.388   183.075
 O      8   7   5   2.687527   107.663   182.553
 H      1   2   3   2.068659   110.847   337.487
 H      1   2   3   2.071129   110.930    96.937
 H      1   2   3   2.068199   111.719   216.972
 H      3   2   1   2.049716   119.908   211.221
 H      3   2   1   2.053517   117.758     0.707
 H      4   2   1   1.919978   111.155   354.992
 H      5   2   1   2.077375   108.281    69.318
 H      6   5   2   1.834457   104.782    42.318
 H      7   5   2   2.073717   109.576   304.445
 H      7   5   2   2.070763   110.371    62.192
 H      8   7   5   2.085023   109.576   303.460
 H      8   7   5   2.073841   109.493    60.828
 H      9   8   7   1.816815   107.957   185.257

---------------------
BASIS SET INFORMATION
---------------------
There are 4 groups of distinct atoms

 Group   1 Type C   : 11s6p2d1f contracted to 5s3p2d1f pattern {62111/411/11/1}
 Group   2 Type N   : 11s6p2d1f contracted to 5s3p2d1f pattern {62111/411/11/1}
 Group   3 Type O   : 11s6p2d1f contracted to 5s3p2d1f pattern {62111/411/11/1}
 Group   4 Type H   : 5s1p contracted to 3s1p pattern {311/1}

Atom   0C    basis set group =>   1
Atom   1C    basis set group =>   1
Atom   2C    basis set group =>   1
Atom   3N    basis set group =>   2
Atom   4C    basis set group =>   1
Atom   5O    basis set group =>   3
Atom   6C    basis set group =>   1
Atom   7C    basis set group =>   1
Atom   8O    basis set group =>   3
Atom   9H    basis set group =>   4
Atom  10H    basis set group =>   4
Atom  11H    basis set group =>   4
Atom  12H    basis set group =>   4
Atom  13H    basis set group =>   4
Atom  14H    basis set group =>   4
Atom  15H    basis set group =>   4
Atom  16H    basis set group =>   4
Atom  17H    basis set group =>   4
Atom  18H    basis set group =>   4
Atom  19H    basis set group =>   4
Atom  20H    basis set group =>   4
Atom  21H    basis set group =>   4
-------------------------------
AUXILIARY BASIS SET INFORMATION
-------------------------------
There are 4 groups of distinct atoms

 Group   1 Type C   : 14s10p6d2f1g contracted to 10s8p5d1f1g pattern {5111111111/31111111/21111/2/1}
 Group   2 Type N   : 14s10p6d2f1g contracted to 10s8p4d2f1g pattern {5111111111/31111111/3111/11/1}
 Group   3 Type O   : 14s10p6d2f1g contracted to 10s8p4d2f1g pattern {5111111111/31111111/3111/11/1}
 Group   4 Type H   : 4s2p2d contracted to 2s2p2d pattern {31/11/11}

Atom   0C    basis set group =>   1
Atom   1C    basis set group =>   1
Atom   2C    basis set group =>   1
Atom   3N    basis set group =>   2
Atom   4C    basis set group =>   1
Atom   5O    basis set group =>   3
Atom   6C    basis set group =>   1
Atom   7C    basis set group =>   1
Atom   8O    basis set group =>   3
Atom   9H    basis set group =>   4
Atom  10H    basis set group =>   4
Atom  11H    basis set group =>   4
Atom  12H    basis set group =>   4
Atom  13H    basis set group =>   4
Atom  14H    basis set group =>   4
Atom  15H    basis set group =>   4
Atom  16H    basis set group =>   4
Atom  17H    basis set group =>   4
Atom  18H    basis set group =>   4
Atom  19H    basis set group =>   4
Atom  20H    basis set group =>   4
Atom  21H    basis set group =>   4
------------------------------------------------------------------------------
                           ORCA GTO INTEGRAL CALCULATION
                           -- RI-GTO INTEGRALS CHOSEN --
------------------------------------------------------------------------------

                         BASIS SET STATISTICS AND STARTUP INFO

Gaussian basis set:
 # of primitive gaussian shells          ...  258
 # of primitive gaussian functions       ...  518
 # of contracted shells                  ...  151
 # of contracted basis functions         ...  357
 Highest angular momentum                ...    3
 Maximum contraction depth               ...    6
Auxiliary gaussian basis set:
 # of primitive gaussian shells          ...  401
 # of primitive gaussian functions       ... 1133
 # of contracted shells                  ...  303
 # of contracted aux-basis functions     ...  915
 Highest angular momentum                ...    4
 Maximum contraction depth               ...    5
Ratio of auxiliary to basis functions    ...  2.56
Integral package used                  ... LIBINT
 One Electron integrals                  ... done
 Ordering auxiliary basis shells         ... done
 Integral threshhold             Thresh  ...  2.500e-11
 Primitive cut-off               TCut    ...  2.500e-12
 Pre-screening matrix                    ... done
 Shell pair data                         ... 
 Ordering of the shell pairs             ... done (   0.002 sec) 10160 of 11476 pairs
 Determination of significant pairs      ... done (   0.000 sec)
 Creation of shell pair data             ... done (   0.002 sec)
 Storage of shell pair data              ... done (   0.002 sec)
 Shell pair data done in (   0.006 sec)
 Computing two index integrals           ... done
 Cholesky decomposition of the V-matrix  ... done


Timings:
 Total evaluation time                   ...   0.422 sec (  0.007 min)
 One electron matrix time                ...   0.108 sec (  0.002 min) = 25.6%
 Schwartz matrix evaluation time         ...   0.216 sec (  0.004 min) = 51.0%
 Two index repulsion integral time       ...   0.024 sec (  0.000 min) =  5.8%
 Cholesky decomposition of V             ...   0.040 sec (  0.001 min) =  9.5%
 Three index repulsion integral time     ...   0.000 sec (  0.000 min) =  0.0%

-------------------------------------------------------------------------------
                                 ORCA SCF
-------------------------------------------------------------------------------

------------
SCF SETTINGS
------------
Hamiltonian:
 Ab initio Hamiltonian  Method          .... Hartree-Fock(GTOs)
 RI-approximation to the Coulomb term is turned on
   Number of auxiliary basis functions  .... 915
   RI-JK (J+K treated both via RI)      .... on


General Settings:
 Integral files         IntName         .... dsgdb9nsd_118087
 Hartree-Fock type      HFTyp           .... RHF
 Total Charge           Charge          ....    0
 Multiplicity           Mult            ....    1
 Number of Electrons    NEL             ....   72
 Basis Dimension        Dim             ....  357
 Nuclear Repulsion      ENuc            ....    487.6913947537 Eh

Convergence Acceleration:
 DIIS                   CNVDIIS         .... on
   Start iteration      DIISMaxIt       ....    12
   Startup error        DIISStart       ....  0.200000
   # of expansion vecs  DIISMaxEq       ....     5
   Bias factor          DIISBfac        ....   1.050
   Max. coefficient     DIISMaxC        ....  10.000
 Newton-Raphson         CNVNR           .... off
 SOSCF                  CNVSOSCF        .... on
   Start iteration      SOSCFMaxIt      ....   150
   Startup grad/error   SOSCFStart      ....  0.003300
 Level Shifting         CNVShift        .... on
   Level shift para.    LevelShift      ....    0.2500
   Turn off err/grad.   ShiftErr        ....    0.0010
 Zerner damping         CNVZerner       .... off
 Static damping         CNVDamp         .... on
   Fraction old density DampFac         ....    0.7000
   Max. Damping (<1)    DampMax         ....    0.9800
   Min. Damping (>=0)   DampMin         ....    0.0000
   Turn off err/grad.   DampErr         ....    0.1000
 Fernandez-Rico         CNVRico         .... off

SCF Procedure:
 Maximum # iterations   MaxIter         ....   125
 SCF integral mode      SCFMode         .... Direct
   Integral package                     .... LIBINT
 Reset frequeny         DirectResetFreq ....    20
 Integral Threshold     Thresh          ....  2.500e-11 Eh
 Primitive CutOff       TCut            ....  2.500e-12 Eh

Convergence Tolerance:
 Convergence Check Mode ConvCheckMode   .... Total+1el-Energy
 Energy Change          TolE            ....  1.000e-08 Eh
 1-El. energy change                    ....  1.000e-05 Eh
 Orbital Gradient       TolG            ....  1.000e-05
 Orbital Rotation angle TolX            ....  1.000e-05
 DIIS Error             TolErr          ....  5.000e-07


Diagonalization of the overlap matrix:
Smallest eigenvalue                        ... 8.733e-05
Time for diagonalization                   ...    0.037 sec
Threshold for overlap eigenvalues          ... 1.000e-08
Number of eigenvalues below threshold      ... 0
Time for construction of square roots      ...    0.020 sec
Total time needed                          ...    0.057 sec

-------------------
DFT GRID GENERATION
-------------------

General Integration Accuracy     IntAcc      ...  4.340
Radial Grid Type                 RadialGrid  ... Gauss-Chebyshev
Angular Grid (max. acc.)         AngularGrid ... Lebedev-110
Angular grid pruning method      GridPruning ... 3 (G Style)
Weight generation scheme         WeightScheme... Becke
Basis function cutoff            BFCut       ...    1.0000e-11
Integration weight cutoff        WCut        ...    1.0000e-14
Grids for H and He will be reduced by one unit

# of grid points (after initial pruning)     ...  25392 (   0.0 sec)
# of grid points (after weights+screening)   ...  23136 (   0.2 sec)
nearest neighbour list constructed           ...    0.0 sec
Grid point re-assignment to atoms done       ...    0.0 sec
Grid point division into batches done        ...    0.0 sec
Reduced shell lists constructed in    1.4 sec

Total number of grid points                  ...    23136
Total number of batches                      ...      372
Average number of points per batch           ...       62
Average number of grid points per atom       ...     1052
Average number of shells per batch           ...    97.53 (64.59%)
Average number of basis functions per batch  ...   232.56 (65.14%)
Average number of large shells per batch     ...    74.15 (76.03%)
Average number of large basis fcns per batch ...   174.71 (75.12%)
Average number of aux-shells per batch       ...    97.53 (32.19%)
Average number of aux functions per batch    ...   232.56 (  inf%)
Maximum spatial batch extension              ...  18.12, 19.72, 25.60 au
Average spatial batch extension              ...   3.28,  3.62,  3.55 au

Time for grid setup =    1.615 sec

------------------------------
INITIAL GUESS: MODEL POTENTIAL
------------------------------
Loading Hartree-Fock densities                     ... done
Calculating cut-offs                               ... done
Setting up the integral package                    ... done
Initializing the effective Hamiltonian             ... done
Starting the Coulomb interaction                   ... done (   0.8 sec)
Reading the grid                                   ... done
Mapping shells                                     ... done
Starting the XC term evaluation                    ... done (   0.8 sec)
Transforming the Hamiltonian                       ... done (   0.0 sec)
Diagonalizing the Hamiltonian                      ... done (   0.0 sec)
Back transforming the eigenvectors                 ... done (   0.0 sec)
Now organizing SCF variables                       ... done
                      ------------------
                      INITIAL GUESS DONE (   3.4 sec)
                      ------------------
--------------
SCF ITERATIONS
--------------
ITER       Energy         Delta-E        Max-DP      RMS-DP      [F,P]     Damp
  0   -438.6266891969   0.000000000000 0.05284407  0.00087038  0.2890209 0.7000
  1   -438.4062175761   0.220471620838 0.08139307  0.00097625  0.2477187 0.7000
                               ***Turning on DIIS***
  2   -438.4533257743  -0.047108198162 0.05134422  0.00067011  0.1857443 0.7000
  3   -439.7880279761  -1.334702201839 0.01382834  0.00030562  0.1320840 0.7000
  4   -438.9453480722   0.842679903940 0.08589018  0.00091579  0.0859165 0.0000
  5   -439.1013656572  -0.156017585077 0.00998594  0.00018501  0.0229709 0.0000
  6   -438.9493168688   0.152048788460 0.00522672  0.00009698  0.0132728 0.0000
  7   -438.9801147450  -0.030797876201 0.00269040  0.00005346  0.0075236 0.0000
  8   -438.9678140133   0.012300731669 0.00184894  0.00004792  0.0048811 0.0000
                      *** Initiating the SOSCF procedure ***
                           *** Shutting down DIIS ***
                      *** Re-Reading the Fockian *** 
                      *** Removing any level shift *** 
ITER      Energy       Delta-E        Grad      Rot      Max-DP    RMS-DP
  9   -439.06420261  -0.0963885991  0.000111  0.000111  0.000944  0.000014
 10   -439.06732430  -0.0031216850  0.000032  0.000040  0.000278  0.000004
 11   -439.06732444  -0.0000001416  0.000022  0.000022  0.000079  0.000001
 12   -439.06732449  -0.0000000475  0.000004  0.000011  0.000016  0.000000
                  ***Gradient check signals convergence***
              ***Rediagonalizing the Fockian in SOSCF/NRSCF***

               *****************************************************
               *                     SUCCESS                       *
               *           SCF CONVERGED AFTER  13 CYCLES          *
               *****************************************************


----------------
TOTAL SCF ENERGY
----------------

Total Energy       :         -439.06732449 Eh          -11947.62931 eV

Components:
Nuclear Repulsion  :          487.69139475 Eh           13270.75752 eV
Electronic Energy  :         -926.75871924 Eh          -25218.38683 eV

One Electron Energy:        -1566.66949965 Eh          -42631.24442 eV
Two Electron Energy:          639.91078041 Eh           17412.85759 eV

Virial components:
Potential Energy   :         -877.56263588 Eh          -23879.69334 eV
Kinetic Energy     :          438.49531139 Eh           11932.06404 eV
Virial Ratio       :            2.00130449


---------------
SCF CONVERGENCE
---------------

  Last Energy change         ...   -2.1230e-09  Tolerance :   1.0000e-08
  Last MAX-Density change    ...    5.5529e-06  Tolerance :   1.0000e-07
  Last RMS-Density change    ...    1.0894e-07  Tolerance :   5.0000e-09
  Last Orbital Gradient      ...    1.1908e-06  Tolerance :   1.0000e-05
  Last Orbital Rotation      ...    3.7673e-06  Tolerance :   1.0000e-05

             **** THE GBW FILE WAS UPDATED (dsgdb9nsd_118087.gbw) ****
             **** DENSITY FILE WAS UPDATED (dsgdb9nsd_118087.scfp.tmp) ****
             **** ENERGY FILE WAS UPDATED (dsgdb9nsd_118087.en.tmp) ****
----------------
ORBITAL ENERGIES
----------------

  NO   OCC          E(Eh)            E(eV) 
   0   2.0000     -20.548600      -559.1558 
   1   2.0000     -20.541588      -558.9650 
   2   2.0000     -15.564434      -423.5298 
   3   2.0000     -11.279759      -306.9378 
   4   2.0000     -11.271416      -306.7108 
   5   2.0000     -11.265820      -306.5586 
   6   2.0000     -11.255730      -306.2840 
   7   2.0000     -11.232732      -305.6582 
   8   2.0000     -11.214487      -305.1617 
   9   2.0000      -1.358433       -36.9649 
  10   2.0000      -1.351213       -36.7684 
  11   2.0000      -1.263994       -34.3950 
  12   2.0000      -1.049662       -28.5628 
  13   2.0000      -0.995950       -27.1012 
  14   2.0000      -0.916650       -24.9433 
  15   2.0000      -0.887362       -24.1464 
  16   2.0000      -0.813150       -22.1269 
  17   2.0000      -0.776977       -21.1426 
  18   2.0000      -0.691904       -18.8277 
  19   2.0000      -0.688365       -18.7314 
  20   2.0000      -0.669714       -18.2238 
  21   2.0000      -0.651198       -17.7200 
  22   2.0000      -0.609416       -16.5830 
  23   2.0000      -0.596513       -16.2319 
  24   2.0000      -0.576589       -15.6898 
  25   2.0000      -0.566988       -15.4285 
  26   2.0000      -0.565057       -15.3760 
  27   2.0000      -0.541608       -14.7379 
  28   2.0000      -0.508628       -13.8405 
  29   2.0000      -0.497407       -13.5351 
  30   2.0000      -0.479500       -13.0479 
  31   2.0000      -0.474631       -12.9154 
  32   2.0000      -0.452091       -12.3020 
  33   2.0000      -0.444207       -12.0875 
  34   2.0000      -0.433541       -11.7973 
  35   2.0000      -0.388606       -10.5745 
  36   0.0000       0.129563         3.5256 
  37   0.0000       0.144738         3.9385 
  38   0.0000       0.158350         4.3089 
  39   0.0000       0.172671         4.6986 
  40   0.0000       0.178353         4.8532 
  41   0.0000       0.189750         5.1634 
  42   0.0000       0.209733         5.7071 
  43   0.0000       0.215890         5.8747 
  44   0.0000       0.217979         5.9315 
  45   0.0000       0.227546         6.1918 
  46   0.0000       0.239414         6.5148 
  47   0.0000       0.250851         6.8260 
  48   0.0000       0.261569         7.1177 
  49   0.0000       0.270160         7.3514 
  50   0.0000       0.279819         7.6143 
  51   0.0000       0.289923         7.8892 
  52   0.0000       0.312843         8.5129 
  53   0.0000       0.322353         8.7717 
  54   0.0000       0.338951         9.2233 
  55   0.0000       0.341502         9.2927 
  56   0.0000       0.344096         9.3633 
  57   0.0000       0.372526        10.1370 
  58   0.0000       0.386285        10.5114 
  59   0.0000       0.401019        10.9123 
  60   0.0000       0.415428        11.3044 
  61   0.0000       0.433897        11.8069 
  62   0.0000       0.448281        12.1983 
  63   0.0000       0.457073        12.4376 
  64   0.0000       0.476867        12.9762 
  65   0.0000       0.493789        13.4367 
  66   0.0000       0.504928        13.7398 
  67   0.0000       0.517160        14.0726 
  68   0.0000       0.520470        14.1627 
  69   0.0000       0.524535        14.2733 
  70   0.0000       0.529914        14.4197 
  71   0.0000       0.541595        14.7375 
  72   0.0000       0.549243        14.9456 
  73   0.0000       0.565563        15.3897 
  74   0.0000       0.579149        15.7594 
  75   0.0000       0.584471        15.9043 
  76   0.0000       0.586505        15.9596 
  77   0.0000       0.593732        16.1563 
  78   0.0000       0.601097        16.3567 
  79   0.0000       0.607983        16.5441 
  80   0.0000       0.633108        17.2278 
  81   0.0000       0.646049        17.5799 
  82   0.0000       0.648186        17.6380 
  83   0.0000       0.657999        17.9051 
  84   0.0000       0.666667        18.1409 
  85   0.0000       0.669468        18.2171 
  86   0.0000       0.678694        18.4682 
  87   0.0000       0.689184        18.7537 
  88   0.0000       0.712193        19.3798 
  89   0.0000       0.713116        19.4049 
  90   0.0000       0.731154        19.8957 
  91   0.0000       0.744911        20.2701 
  92   0.0000       0.746678        20.3181 
  93   0.0000       0.758606        20.6427 
  94   0.0000       0.764494        20.8029 
  95   0.0000       0.775811        21.1109 
  96   0.0000       0.787379        21.4257 
  97   0.0000       0.802758        21.8442 
  98   0.0000       0.830960        22.6116 
  99   0.0000       0.847820        23.0703 
 100   0.0000       0.853893        23.2356 
 101   0.0000       0.864912        23.5354 
 102   0.0000       0.907957        24.7068 
 103   0.0000       0.931274        25.3412 
 104   0.0000       0.951091        25.8805 
 105   0.0000       0.959897        26.1201 
 106   0.0000       0.976157        26.5626 
 107   0.0000       1.021107        27.7857 
 108   0.0000       1.042229        28.3605 
 109   0.0000       1.057510        28.7763 
 110   0.0000       1.069797        29.1106 
 111   0.0000       1.081632        29.4327 
 112   0.0000       1.089988        29.6601 
 113   0.0000       1.098731        29.8980 
 114   0.0000       1.153622        31.3916 
 115   0.0000       1.165929        31.7265 
 116   0.0000       1.185297        32.2536 
 117   0.0000       1.197422        32.5835 
 118   0.0000       1.218547        33.1583 
 119   0.0000       1.227409        33.3995 
 120   0.0000       1.244927        33.8762 
 121   0.0000       1.265958        34.4485 
 122   0.0000       1.270859        34.5818 
 123   0.0000       1.296255        35.2729 
 124   0.0000       1.308036        35.5935 
 125   0.0000       1.337586        36.3976 
 126   0.0000       1.362927        37.0871 
 127   0.0000       1.387335        37.7513 
 128   0.0000       1.402408        38.1615 
 129   0.0000       1.431015        38.9399 
 130   0.0000       1.466599        39.9082 
 131   0.0000       1.496882        40.7322 
 132   0.0000       1.505766        40.9740 
 133   0.0000       1.518200        41.3123 
 134   0.0000       1.538556        41.8663 
 135   0.0000       1.565423        42.5973 
 136   0.0000       1.581281        43.0288 
 137   0.0000       1.610376        43.8206 
 138   0.0000       1.635370        44.5007 
 139   0.0000       1.677986        45.6603 
 140   0.0000       1.701926        46.3118 
 141   0.0000       1.718370        46.7592 
 142   0.0000       1.730906        47.1003 
 143   0.0000       1.747225        47.5444 
 144   0.0000       1.758761        47.8583 
 145   0.0000       1.779408        48.4201 
 146   0.0000       1.815594        49.4048 
 147   0.0000       1.823989        49.6333 
 148   0.0000       1.841473        50.1090 
 149   0.0000       1.849182        50.3188 
 150   0.0000       1.867529        50.8181 
 151   0.0000       1.877362        51.0856 
 152   0.0000       1.886035        51.3216 
 153   0.0000       1.902050        51.7574 
 154   0.0000       1.903833        51.8059 
 155   0.0000       1.922576        52.3160 
 156   0.0000       1.955598        53.2145 
 157   0.0000       1.957412        53.2639 
 158   0.0000       1.969612        53.5959 
 159   0.0000       1.994623        54.2764 
 160   0.0000       2.022682        55.0400 
 161   0.0000       2.061575        56.0983 
 162   0.0000       2.077158        56.5223 
 163   0.0000       2.098882        57.1135 
 164   0.0000       2.113298        57.5058 
 165   0.0000       2.118770        57.6547 
 166   0.0000       2.147376        58.4331 
 167   0.0000       2.158435        58.7340 
 168   0.0000       2.173177        59.1351 
 169   0.0000       2.179876        59.3174 
 170   0.0000       2.206379        60.0386 
 171   0.0000       2.224077        60.5202 
 172   0.0000       2.230142        60.6852 
 173   0.0000       2.241590        60.9968 
 174   0.0000       2.270037        61.7709 
 175   0.0000       2.284764        62.1716 
 176   0.0000       2.288269        62.2670 
 177   0.0000       2.324525        63.2535 
 178   0.0000       2.340845        63.6976 
 179   0.0000       2.364714        64.3471 
 180   0.0000       2.378751        64.7291 
 181   0.0000       2.384346        64.8813 
 182   0.0000       2.416133        65.7463 
 183   0.0000       2.463394        67.0324 
 184   0.0000       2.496575        67.9353 
 185   0.0000       2.509053        68.2748 
 186   0.0000       2.515458        68.4491 
 187   0.0000       2.529314        68.8261 
 188   0.0000       2.557927        69.6047 
 189   0.0000       2.566213        69.8302 
 190   0.0000       2.582903        70.2844 
 191   0.0000       2.591536        70.5193 
 192   0.0000       2.603785        70.8526 
 193   0.0000       2.632742        71.6406 
 194   0.0000       2.643125        71.9231 
 195   0.0000       2.660459        72.3948 
 196   0.0000       2.692037        73.2540 
 197   0.0000       2.705231        73.6131 
 198   0.0000       2.710331        73.7519 
 199   0.0000       2.722378        74.0797 
 200   0.0000       2.735064        74.4249 
 201   0.0000       2.752733        74.9057 
 202   0.0000       2.765771        75.2605 
 203   0.0000       2.782509        75.7159 
 204   0.0000       2.799770        76.1856 
 205   0.0000       2.813793        76.5672 
 206   0.0000       2.833215        77.0957 
 207   0.0000       2.855957        77.7145 
 208   0.0000       2.873134        78.1820 
 209   0.0000       2.884693        78.4965 
 210   0.0000       2.898188        78.8637 
 211   0.0000       2.910849        79.2082 
 212   0.0000       2.943300        80.0913 
 213   0.0000       2.948491        80.2325 
 214   0.0000       2.962113        80.6032 
 215   0.0000       2.973819        80.9217 
 216   0.0000       2.988403        81.3186 
 217   0.0000       2.998586        81.5957 
 218   0.0000       3.013383        81.9983 
 219   0.0000       3.044029        82.8322 
 220   0.0000       3.050404        83.0057 
 221   0.0000       3.072727        83.6132 
 222   0.0000       3.089755        84.0765 
 223   0.0000       3.097964        84.2999 
 224   0.0000       3.118307        84.8534 
 225   0.0000       3.170677        86.2785 
 226   0.0000       3.188102        86.7527 
 227   0.0000       3.210796        87.3702 
 228   0.0000       3.225748        87.7771 
 229   0.0000       3.239168        88.1422 
 230   0.0000       3.256637        88.6176 
 231   0.0000       3.290512        89.5394 
 232   0.0000       3.305729        89.9535 
 233   0.0000       3.328104        90.5623 
 234   0.0000       3.349712        91.1503 
 235   0.0000       3.355836        91.3169 
 236   0.0000       3.400740        92.5388 
 237   0.0000       3.409884        92.7877 
 238   0.0000       3.438632        93.5699 
 239   0.0000       3.448504        93.8386 
 240   0.0000       3.470151        94.4276 
 241   0.0000       3.485624        94.8487 
 242   0.0000       3.495044        95.1050 
 243   0.0000       3.510462        95.5245 
 244   0.0000       3.528837        96.0245 
 245   0.0000       3.554960        96.7354 
 246   0.0000       3.578891        97.3866 
 247   0.0000       3.593832        97.7931 
 248   0.0000       3.617786        98.4450 
 249   0.0000       3.625862        98.6647 
 250   0.0000       3.638835        99.0177 
 251   0.0000       3.651741        99.3689 
 252   0.0000       3.663501        99.6889 
 253   0.0000       3.677494       100.0697 
 254   0.0000       3.692594       100.4806 
 255   0.0000       3.708937       100.9253 
 256   0.0000       3.718087       101.1743 
 257   0.0000       3.732110       101.5559 
 258   0.0000       3.755983       102.2055 
 259   0.0000       3.764634       102.4409 
 260   0.0000       3.774824       102.7182 
 261   0.0000       3.783146       102.9446 
 262   0.0000       3.826431       104.1225 
 263   0.0000       3.845320       104.6365 
 264   0.0000       3.855702       104.9190 
 265   0.0000       3.883658       105.6797 
 266   0.0000       3.911626       106.4408 
 267   0.0000       3.939783       107.2069 
 268   0.0000       3.951847       107.5352 
 269   0.0000       3.968149       107.9788 
 270   0.0000       3.971256       108.0634 
 271   0.0000       3.983806       108.4049 
 272   0.0000       4.039825       109.9292 
 273   0.0000       4.060411       110.4894 
 274   0.0000       4.067087       110.6711 
 275   0.0000       4.094766       111.4243 
 276   0.0000       4.176410       113.6459 
 277   0.0000       4.197347       114.2156 
 278   0.0000       4.213929       114.6668 
 279   0.0000       4.234400       115.2239 
 280   0.0000       4.245421       115.5238 
 281   0.0000       4.274178       116.3063 
 282   0.0000       4.296227       116.9063 
 283   0.0000       4.325545       117.7041 
 284   0.0000       4.344355       118.2159 
 285   0.0000       4.359060       118.6161 
 286   0.0000       4.419026       120.2478 
 287   0.0000       4.481641       121.9517 
 288   0.0000       4.503113       122.5359 
 289   0.0000       4.538140       123.4891 
 290   0.0000       4.541358       123.5766 
 291   0.0000       4.580449       124.6404 
 292   0.0000       4.584756       124.7576 
 293   0.0000       4.603930       125.2793 
 294   0.0000       4.618727       125.6820 
 295   0.0000       4.695146       127.7614 
 296   0.0000       4.735302       128.8541 
 297   0.0000       4.761726       129.5732 
 298   0.0000       4.797705       130.5522 
 299   0.0000       4.821243       131.1927 
 300   0.0000       4.867598       132.4541 
 301   0.0000       4.906997       133.5262 
 302   0.0000       4.923598       133.9779 
 303   0.0000       4.990768       135.8057 
 304   0.0000       5.009700       136.3209 
 305   0.0000       5.049618       137.4071 
 306   0.0000       5.099145       138.7548 
 307   0.0000       5.138445       139.8242 
 308   0.0000       5.145795       140.0242 
 309   0.0000       5.171048       140.7114 
 310   0.0000       5.202241       141.5602 
 311   0.0000       5.291743       143.9957 
 312   0.0000       5.351761       145.6288 
 313   0.0000       5.401021       146.9693 
 314   0.0000       5.438117       147.9787 
 315   0.0000       5.490732       149.4104 
 316   0.0000       5.514857       150.0669 
 317   0.0000       5.584969       151.9747 
 318   0.0000       5.665316       154.1611 
 319   0.0000       5.713563       155.4740 
 320   0.0000       5.729460       155.9065 
 321   0.0000       5.745832       156.3520 
 322   0.0000       5.813245       158.1864 
 323   0.0000       5.837013       158.8332 
 324   0.0000       5.863547       159.5552 
 325   0.0000       5.889290       160.2557 
 326   0.0000       5.932507       161.4317 
 327   0.0000       5.997686       163.2053 
 328   0.0000       6.110020       166.2621 
 329   0.0000       6.196068       168.6036 
 330   0.0000       6.212881       169.0611 
 331   0.0000       6.243237       169.8871 
 332   0.0000       6.279033       170.8612 
 333   0.0000       6.324866       172.1084 
 334   0.0000       6.384772       173.7385 
 335   0.0000       6.511404       177.1843 
 336   0.0000       6.792018       184.8202 
 337   0.0000       6.800614       185.0541 
 338   0.0000       6.988828       190.1757 
 339   0.0000       7.068991       192.3570 
 340   0.0000       7.220905       196.4908 
 341   0.0000       7.258846       197.5232 
 342   0.0000       7.306734       198.8263 
 343   0.0000       7.416698       201.8186 
 344   0.0000       7.517627       204.5650 
 345   0.0000       7.548402       205.4025 
 346   0.0000       7.678599       208.9453 
 347   0.0000       7.706401       209.7018 
 348   0.0000      23.469812       638.6461 
 349   0.0000      23.493798       639.2988 
 350   0.0000      23.509346       639.7218 
 351   0.0000      23.603802       642.2921 
 352   0.0000      23.746969       646.1879 
 353   0.0000      23.841839       648.7694 
 354   0.0000      33.505630       911.7345 
 355   0.0000      45.396572      1235.3035 
 356   0.0000      45.587729      1240.5052 

                    ********************************
                    * MULLIKEN POPULATION ANALYSIS *
                    ********************************

-----------------------
MULLIKEN ATOMIC CHARGES
-----------------------
   0 C :   -0.356864
   1 C :    0.180512
   2 C :   -0.147638
   3 N :   -0.507291
   4 C :    0.171439
   5 O :   -0.575158
   6 C :   -0.149439
   7 C :    0.023151
   8 O :   -0.535052
   9 H :    0.110337
  10 H :    0.114878
  11 H :    0.129830
  12 H :    0.124888
  13 H :    0.112676
  14 H :    0.211939
  15 H :    0.071216
  16 H :    0.356680
  17 H :    0.091317
  18 H :    0.089647
  19 H :    0.059400
  20 H :    0.099318
  21 H :    0.324216
Sum of atomic charges:   -0.0000000

--------------------------------
MULLIKEN REDUCED ORBITAL CHARGES
--------------------------------
  0 C s       :     3.251959  s :     3.251959
      pz      :     1.065914  p :     3.021960
      px      :     1.051357
      py      :     0.904689
      dz2     :     0.011876  d :     0.078228
      dxz     :     0.010028
      dyz     :     0.020243
      dx2y2   :     0.018930
      dxy     :     0.017151
      f0      :     0.000315  f :     0.004718
      f+1     :     0.000958
      f-1     :     0.000824
      f+2     :     0.000526
      f-2     :     0.000137
      f+3     :     0.000953
      f-3     :     0.001005
  1 C s       :     3.037498  s :     3.037498
      pz      :     0.862512  p :     2.584799
      px      :     0.872388
      py      :     0.849899
      dz2     :     0.029566  d :     0.182640
      dxz     :     0.033872
      dyz     :     0.031582
      dx2y2   :     0.047399
      dxy     :     0.040220
      f0      :     0.001460  f :     0.014552
      f+1     :     0.001936
      f-1     :     0.001913
      f+2     :     0.002075
      f-2     :     0.001969
      f+3     :     0.002589
      f-3     :     0.002609
  2 C s       :     3.225663  s :     3.225663
      pz      :     0.791691  p :     2.809677
      px      :     0.996318
      py      :     1.021668
      dz2     :     0.025236  d :     0.102009
      dxz     :     0.017090
      dyz     :     0.026101
      dx2y2   :     0.016300
      dxy     :     0.017282
      f0      :     0.002363  f :     0.010289
      f+1     :     0.001859
      f-1     :     0.001873
      f+2     :     0.000838
      f-2     :     0.001236
      f+3     :     0.000811
      f-3     :     0.001310
  3 N s       :     3.621553  s :     3.621553
      pz      :     1.136244  p :     3.816806
      px      :     1.252344
      py      :     1.428218
      dz2     :     0.019224  d :     0.065070
      dxz     :     0.015238
      dyz     :     0.011025
      dx2y2   :     0.004373
      dxy     :     0.015209
      f0      :     0.001170  f :     0.003862
      f+1     :     0.000624
      f-1     :     0.000606
      f+2     :     0.000319
      f-2     :     0.000731
      f+3     :     0.000210
      f-3     :     0.000202
  4 C s       :     3.090291  s :     3.090291
      pz      :     0.973720  p :     2.544784
      px      :     0.924920
      py      :     0.646145
      dz2     :     0.036876  d :     0.179913
      dxz     :     0.025039
      dyz     :     0.031748
      dx2y2   :     0.036729
      dxy     :     0.049522
      f0      :     0.001623  f :     0.013573
      f+1     :     0.001386
      f-1     :     0.001576
      f+2     :     0.002169
      f-2     :     0.001065
      f+3     :     0.003436
      f-3     :     0.002319
  5 O s       :     3.805118  s :     3.805118
      pz      :     1.604212  p :     4.734748
      px      :     1.726780
      py      :     1.403756
      dz2     :     0.006190  d :     0.033547
      dxz     :     0.008218
      dyz     :     0.003499
      dx2y2   :     0.011838
      dxy     :     0.003802
      f0      :     0.000122  f :     0.001745
      f+1     :     0.000487
      f-1     :     0.000163
      f+2     :     0.000404
      f-2     :     0.000083
      f+3     :     0.000181
      f-3     :     0.000305
  6 C s       :     3.109469  s :     3.109469
      pz      :     1.000069  p :     2.932640
      px      :     0.944579
      py      :     0.987992
      dz2     :     0.023836  d :     0.100630
      dxz     :     0.023315
      dyz     :     0.009839
      dx2y2   :     0.027048
      dxy     :     0.016592
      f0      :     0.001038  f :     0.006700
      f+1     :     0.001219
      f-1     :     0.000402
      f+2     :     0.000740
      f-2     :     0.000844
      f+3     :     0.001032
      f-3     :     0.001426
  7 C s       :     3.185503  s :     3.185503
      pz      :     0.879669  p :     2.639303
      px      :     0.841283
      py      :     0.918351
      dz2     :     0.035094  d :     0.140858
      dxz     :     0.027781
      dyz     :     0.015765
      dx2y2   :     0.038816
      dxy     :     0.023402
      f0      :     0.001462  f :     0.011185
      f+1     :     0.001989
      f-1     :     0.001255
      f+2     :     0.001601
      f-2     :     0.001538
      f+3     :     0.001633
      f-3     :     0.001707
  8 O s       :     3.789305  s :     3.789305
      pz      :     1.729359  p :     4.711874
      px      :     1.336865
      py      :     1.645651
      dz2     :     0.005444  d :     0.032071
      dxz     :     0.003616
      dyz     :     0.006523
      dx2y2   :     0.004171
      dxy     :     0.012316
      f0      :     0.000214  f :     0.001802
      f+1     :     0.000358
      f-1     :     0.000199
      f+2     :     0.000162
      f-2     :     0.000314
      f+3     :     0.000066
      f-3     :     0.000489
  9 H s       :     0.867899  s :     0.867899
      pz      :     0.003700  p :     0.021764
      px      :     0.013235
      py      :     0.004829
 10 H s       :     0.863294  s :     0.863294
      pz      :     0.011382  p :     0.021829
      px      :     0.005702
      py      :     0.004745
 11 H s       :     0.848250  s :     0.848250
      pz      :     0.009656  p :     0.021920
      px      :     0.005749
      py      :     0.006516
 12 H s       :     0.851870  s :     0.851870
      pz      :     0.004608  p :     0.023242
      px      :     0.003927
      py      :     0.014708
 13 H s       :     0.864966  s :     0.864966
      pz      :     0.004994  p :     0.022357
      px      :     0.011727
      py      :     0.005637
 14 H s       :     0.750484  s :     0.750484
      pz      :     0.011143  p :     0.037577
      px      :     0.013223
      py      :     0.013212
 15 H s       :     0.907185  s :     0.907185
      pz      :     0.014413  p :     0.021600
      px      :     0.004874
      py      :     0.002313
 16 H s       :     0.596717  s :     0.596717
      pz      :     0.018297  p :     0.046603
      px      :     0.018827
      py      :     0.009479
 17 H s       :     0.886653  s :     0.886653
      pz      :     0.013587  p :     0.022030
      px      :     0.004900
      py      :     0.003543
 18 H s       :     0.888043  s :     0.888043
      pz      :     0.004160  p :     0.022309
      px      :     0.003799
      py      :     0.014349
 19 H s       :     0.920068  s :     0.920068
      pz      :     0.013217  p :     0.020532
      px      :     0.004269
      py      :     0.003047
 20 H s       :     0.879637  s :     0.879637
      pz      :     0.003620  p :     0.021045
      px      :     0.003177
      py      :     0.014248
 21 H s       :     0.629472  s :     0.629472
      pz      :     0.013895  p :     0.046312
      px      :     0.019071
      py      :     0.013347


                     *******************************
                     * LOEWDIN POPULATION ANALYSIS *
                     *******************************

----------------------
LOEWDIN ATOMIC CHARGES
----------------------
   0 C :   -0.240438
   1 C :   -0.303259
   2 C :   -0.212997
   3 N :   -0.031592
   4 C :   -0.278363
   5 O :   -0.046437
   6 C :   -0.227099
   7 C :   -0.307543
   8 O :   -0.082459
   9 H :    0.117641
  10 H :    0.122832
  11 H :    0.119516
  12 H :    0.122772
  13 H :    0.113421
  14 H :    0.157606
  15 H :    0.137442
  16 H :    0.185641
  17 H :    0.133357
  18 H :    0.132614
  19 H :    0.105808
  20 H :    0.111927
  21 H :    0.169611

-------------------------------
LOEWDIN REDUCED ORBITAL CHARGES
-------------------------------
  0 C s       :     2.817284  s :     2.817284
      pz      :     1.057779  p :     3.121264
      px      :     1.049173
      py      :     1.014312
      dz2     :     0.042121  d :     0.276924
      dxz     :     0.030704
      dyz     :     0.077600
      dx2y2   :     0.063831
      dxy     :     0.062668
      f0      :     0.002054  f :     0.024965
      f+1     :     0.003174
      f-1     :     0.004008
      f+2     :     0.003196
      f-2     :     0.002802
      f+3     :     0.005613
      f-3     :     0.004118
  1 C s       :     2.695468  s :     2.695468
      pz      :     0.885081  p :     2.837576
      px      :     0.956865
      py      :     0.995630
      dz2     :     0.111128  d :     0.685750
      dxz     :     0.122665
      dyz     :     0.120259
      dx2y2   :     0.177136
      dxy     :     0.154562
      f0      :     0.008231  f :     0.084466
      f+1     :     0.010972
      f-1     :     0.009912
      f+2     :     0.014049
      f-2     :     0.013492
      f+3     :     0.015836
      f-3     :     0.011974
  2 C s       :     2.786419  s :     2.786419
      pz      :     0.885008  p :     2.939340
      px      :     1.020627
      py      :     1.033705
      dz2     :     0.093737  d :     0.430732
      dxz     :     0.092453
      dyz     :     0.106075
      dx2y2   :     0.079002
      dxy     :     0.059465
      f0      :     0.012548  f :     0.056505
      f+1     :     0.012280
      f-1     :     0.012143
      f+2     :     0.002980
      f-2     :     0.006786
      f+3     :     0.005153
      f-3     :     0.004616
  3 N s       :     3.087202  s :     3.087202
      pz      :     1.199979  p :     3.745448
      px      :     1.191134
      py      :     1.354335
      dz2     :     0.051396  d :     0.183296
      dxz     :     0.045459
      dyz     :     0.038812
      dx2y2   :     0.014031
      dxy     :     0.033598
      f0      :     0.004252  f :     0.015647
      f+1     :     0.003289
      f-1     :     0.002640
      f+2     :     0.001432
      f-2     :     0.002048
      f+3     :     0.001234
      f-3     :     0.000753
  4 C s       :     2.740286  s :     2.740286
      pz      :     0.996063  p :     2.796402
      px      :     0.984114
      py      :     0.816226
      dz2     :     0.136656  d :     0.654977
      dxz     :     0.094864
      dyz     :     0.105266
      dx2y2   :     0.157796
      dxy     :     0.160396
      f0      :     0.008978  f :     0.086698
      f+1     :     0.006473
      f-1     :     0.011583
      f+2     :     0.015513
      f-2     :     0.007554
      f+3     :     0.020904
      f-3     :     0.015694
  5 O s       :     3.359455  s :     3.359455
      pz      :     1.543303  p :     4.616091
      px      :     1.627140
      py      :     1.445648
      dz2     :     0.010268  d :     0.066622
      dxz     :     0.012655
      dyz     :     0.012242
      dx2y2   :     0.019771
      dxy     :     0.011686
      f0      :     0.000292  f :     0.004270
      f+1     :     0.000742
      f-1     :     0.000508
      f+2     :     0.001066
      f-2     :     0.000093
      f+3     :     0.000900
      f-3     :     0.000668
  6 C s       :     2.777841  s :     2.777841
      pz      :     1.012982  p :     3.025238
      px      :     1.002705
      py      :     1.009551
      dz2     :     0.090806  d :     0.386888
      dxz     :     0.087349
      dyz     :     0.035758
      dx2y2   :     0.105280
      dxy     :     0.067694
      f0      :     0.004768  f :     0.037132
      f+1     :     0.006020
      f-1     :     0.003008
      f+2     :     0.005146
      f-2     :     0.005434
      f+3     :     0.006395
      f-3     :     0.006362
  7 C s       :     2.797709  s :     2.797709
      pz      :     0.950229  p :     2.883694
      px      :     0.945825
      py      :     0.987640
      dz2     :     0.138661  d :     0.553179
      dxz     :     0.110356
      dyz     :     0.070671
      dx2y2   :     0.130216
      dxy     :     0.103275
      f0      :     0.007469  f :     0.072961
      f+1     :     0.012797
      f-1     :     0.007711
      f+2     :     0.010940
      f-2     :     0.013271
      f+3     :     0.011429
      f-3     :     0.009343
  8 O s       :     3.363738  s :     3.363738
      pz      :     1.680733  p :     4.645829
      px      :     1.326871
      py      :     1.638225
      dz2     :     0.013685  d :     0.068651
      dxz     :     0.009564
      dyz     :     0.010642
      dx2y2   :     0.014064
      dxy     :     0.020696
      f0      :     0.000351  f :     0.004241
      f+1     :     0.000720
      f-1     :     0.000582
      f+2     :     0.000506
      f-2     :     0.000609
      f+3     :     0.000355
      f-3     :     0.001119
  9 H s       :     0.823133  s :     0.823133
      pz      :     0.012474  p :     0.059226
      px      :     0.033637
      py      :     0.013114
 10 H s       :     0.817682  s :     0.817682
      pz      :     0.029401  p :     0.059486
      px      :     0.016907
      py      :     0.013178
 11 H s       :     0.820189  s :     0.820189
      pz      :     0.026389  p :     0.060295
      px      :     0.017025
      py      :     0.016881
 12 H s       :     0.814874  s :     0.814874
      pz      :     0.012537  p :     0.062353
      px      :     0.013076
      py      :     0.036740
 13 H s       :     0.825658  s :     0.825658
      pz      :     0.014274  p :     0.060921
      px      :     0.028776
      py      :     0.017871
 14 H s       :     0.732815  s :     0.732815
      pz      :     0.027420  p :     0.109579
      px      :     0.038213
      py      :     0.043947
 15 H s       :     0.809021  s :     0.809021
      pz      :     0.032048  p :     0.053537
      px      :     0.013994
      py      :     0.007496
 16 H s       :     0.651591  s :     0.651591
      pz      :     0.069148  p :     0.162767
      px      :     0.065047
      py      :     0.028573
 17 H s       :     0.808749  s :     0.808749
      pz      :     0.031819  p :     0.057894
      px      :     0.014316
      py      :     0.011759
 18 H s       :     0.809329  s :     0.809329
      pz      :     0.013554  p :     0.058057
      px      :     0.012196
      py      :     0.032307
 19 H s       :     0.838717  s :     0.838717
      pz      :     0.032644  p :     0.055475
      px      :     0.012299
      py      :     0.010531
 20 H s       :     0.830008  s :     0.830008
      pz      :     0.012112  p :     0.058066
      px      :     0.011148
      py      :     0.034806
 21 H s       :     0.671676  s :     0.671676
      pz      :     0.040193  p :     0.158714
      px      :     0.067679
      py      :     0.050842


                      *****************************
                      * MAYER POPULATION ANALYSIS *
                      *****************************

  NA   - Mulliken gross atomic population
  ZA   - Total nuclear charge
  QA   - Mulliken gross atomic charge
  VA   - Mayer's total valence
  BVA  - Mayer's bonded valence
  FA   - Mayer's free valence

  ATOM       NA         ZA         QA         VA         BVA        FA
  0 C      6.3569     6.0000    -0.3569     3.8978     3.8978     0.0000
  1 C      5.8195     6.0000     0.1805     3.8684     3.8684     0.0000
  2 C      6.1476     6.0000    -0.1476     3.9080     3.9080     0.0000
  3 N      7.5073     7.0000    -0.5073     2.8630     2.8630    -0.0000
  4 C      5.8286     6.0000     0.1714     3.8728     3.8728    -0.0000
  5 O      8.5752     8.0000    -0.5752     1.8102     1.8102    -0.0000
  6 C      6.1494     6.0000    -0.1494     3.8339     3.8339    -0.0000
  7 C      5.9768     6.0000     0.0232     3.9971     3.9971     0.0000
  8 O      8.5351     8.0000    -0.5351     1.8289     1.8289     0.0000
  9 H      0.8897     1.0000     0.1103     0.9683     0.9683     0.0000
 10 H      0.8851     1.0000     0.1149     0.9736     0.9736     0.0000
 11 H      0.8702     1.0000     0.1298     0.9615     0.9615    -0.0000
 12 H      0.8751     1.0000     0.1249     0.9819     0.9819     0.0000
 13 H      0.8873     1.0000     0.1127     0.9593     0.9593     0.0000
 14 H      0.7881     1.0000     0.2119     0.9537     0.9537    -0.0000
 15 H      0.9288     1.0000     0.0712     0.9790     0.9790    -0.0000
 16 H      0.6433     1.0000     0.3567     0.9002     0.9002    -0.0000
 17 H      0.9087     1.0000     0.0913     0.9957     0.9957    -0.0000
 18 H      0.9104     1.0000     0.0896     0.9847     0.9847    -0.0000
 19 H      0.9406     1.0000     0.0594     0.9668     0.9668     0.0000
 20 H      0.9007     1.0000     0.0993     0.9758     0.9758    -0.0000
 21 H      0.6758     1.0000     0.3242     0.9066     0.9066     0.0000

  Mayer bond orders larger than 0.1
B(  0-C ,  1-C ) :   0.9626 B(  0-C ,  9-H ) :   0.9795 B(  0-C , 10-H ) :   0.9835 
B(  0-C , 11-H ) :   0.9895 B(  1-C ,  2-C ) :   1.0054 B(  1-C ,  3-N ) :   0.9539 
B(  1-C ,  4-C ) :   0.9606 B(  2-C ,  3-N ) :   0.9392 B(  2-C , 12-H ) :   0.9599 
B(  2-C , 13-H ) :   0.9801 B(  3-N , 14-H ) :   0.9326 B(  4-C ,  5-O ) :   0.9333 
B(  4-C ,  6-C ) :   0.9838 B(  4-C , 15-H ) :   0.9837 B(  5-O , 16-H ) :   0.8505 
B(  6-C ,  7-C ) :   0.9992 B(  6-C , 17-H ) :   0.9664 B(  6-C , 18-H ) :   0.9791 
B(  7-C ,  8-O ) :   1.0081 B(  7-C , 19-H ) :   0.9852 B(  7-C , 20-H ) :   0.9919 
B(  8-O , 21-H ) :   0.8956 

-------
TIMINGS
-------

Total SCF time: 0 days 0 hours 2 min 58 sec 

Total time                  ....     178.590 sec
Sum of individual times     ....     183.443 sec  (102.7%)

Fock matrix formation       ....     176.667 sec  ( 98.9%)
Diagonalization             ....       0.976 sec  (  0.5%)
Density matrix formation    ....       0.053 sec  (  0.0%)
Population analysis         ....       0.191 sec  (  0.1%)
Initial guess               ....       3.399 sec  (  1.9%)
Orbital Transformation      ....       0.000 sec  (  0.0%)
Orbital Orthonormalization  ....       0.000 sec  (  0.0%)
DIIS solution               ....       0.297 sec  (  0.2%)
SOSCF solution              ....       0.245 sec  (  0.1%)

   <<< Auxbasis replaced with dsgdb9nsd_118087.AUXC.tmp (Dim=879) >>> 


------------------------------------------------------------------------------
                              ORCA MP2 CALCULATION
------------------------------------------------------------------------------

Freezing NCore=18 chemical core electrons

   <<< Use J-auxbasis for calculation of Separable RI-J derivative contributions dsgdb9nsd_118087.AUXJ.tmp (Dim=915) >>> 


---------------------
RI-MP2 ENERGY+DENSITY
---------------------
Dimension of the basis                    ...  357
Memory devoted to MP2                     ... 2000 MB   
Data format for buffers                   ... DOUBLE
Compression type for matrix containers    ... UNCOMPRESSED
Overall scaling of the MP2 energy         ...   1.000e+00 Eh
Calculating two index integrals           ... done (    0.019 sec)
Cholesky decomposition of V**-1           ... done (    0.136 sec)

-----------------
RI-TRANSFORMATION (AUX index driven)
-----------------

Dimension of the orbital-basis         ... 357
Dimension of the aux-basis             ... 879
Transformation of internal MOs         ...    0-  35
Transformation of internal/external MOs...    0-  35 to   36- 356
Number Format for Storage              ... Double (8 Byte)
Integral mode                          ... Direct

First Phase: integral generation and transformation of MO indices
  Aux angular momentum 0               ... done (    0.970 sec)
  Aux angular momentum 1               ... done (    1.319 sec)
  Aux angular momentum 2               ... done (    1.375 sec)
  Aux angular momentum 3               ... done (    1.182 sec)
  Aux angular momentum 4               ... done (    0.436 sec)
Closing buffer VIJ ( 0.00 GB; CompressionRatio= 1.94)
Closing buffer VIA ( 0.08 GB; CompressionRatio= 1.00)
  Phase 1 completed in     5.382 sec
Second Phase: sorting and transformation of aux index

IJ-Transformation
Memory available                       ... 1985 MB 
Max. # MO pairs treated in a batch     ... 36    
# of internal orbitals                 ... 36
# batches for internal orbitals        ... 1
Closing buffer IJV ( 0.00 GB; CompressionRatio= 1.00)
(ij|v) transformation done in     0.234 sec

IA-Transformation
Memory available                       ... 1985 MB 
Max. # MO pairs treated in a batch     ... 36    
# of internal orbitals                 ... 36
# batches for internal orbitals        ... 1
Closing buffer IAV ( 0.08 GB; CompressionRatio= 1.00)
(ia|v) transformation done in     1.816 sec

  Phase 2 completed in     2.207 sec
RI-Integral transformation completed in     7.589 sec
Opening buffers                              ... done
Frozen core precalculation                   ... done

Starting loop over batches of integrals:

Operator 0  - window                       ... (  9- 35)x( 36-356)
Operator 0  - Memory available             ...  2000 MB
Operator 0  - Memory needed per MO         ...   4.3 MB
Operator 0  - Number of orbitals per batch ... 27
Operator 0  - Number of batches            ... 1

OPERATOR  0   PASS   0:  MOs     9 ...   35
  Reading integrals       ... ok
  Internal MO  11
  Internal MO  14
  Internal MO  17
  Internal MO  20
  Internal MO  23
  Internal MO  26
  Internal MO  29
  Internal MO  32
  Internal MO  35
Time spent in pair loops =    50.350 sec
Deleting buffer (Ka|jb)[aa] ...done

-----------------------------------------------
 RI-MP2 CORRELATION ENERGY:     -1.681382590 Eh
-----------------------------------------------


---------------------
MP2 DENSITY FORMATION
---------------------

Completing the external part of the density      ... done
Storing the unrelaxed density                    ... done

Calculating G(D)                                 ... done
Completing the Lagrangian                        ... done
Solving the Z-vector equations                   ... 

------------------------------------------------------------------------------
                           ORCA CP-SCF CALCULATION
------------------------------------------------------------------------------

Input orbitals are from        ... dsgdb9nsd_118087.gbw
Input Perturbation             ... dsgdb9nsd_118087.pin.tmp
Wavefunction output            ... dsgdb9nsd_118087.pout.tmp
Perturbation mode              ... Real perturbation
Solver                         ... POPLE
Max. number of iterations      ... 128
Convergence tolerance          ... 1.000e-08
Integral handling              ... Direct
Number of perturbations        ... 1
Number of operators            ... 1
Orbital ranges used for CP-SCF:
 Operator 0:  Orbitals   0... 35  to  36...356
Variables per vector in CP-SCF ... 11556
Number of vectors sought       ... 1
     CP-SCF ITERATION   0: 
     CP-SCF ITERATION   1:      0.000719953
     CP-SCF ITERATION   2:      0.000093093
     CP-SCF ITERATION   3:      0.000007335
     CP-SCF ITERATION   4:      0.000000493
     CP-SCF ITERATION   5:      0.000000052
     CP-SCF ITERATION   6:      0.000000005
done
Finalizing the relaxed density                   ... done
Transforming P to the AO basis                   ... done
Storing the relaxed density                      ... done

                *********************************************
                * UNRELAXED MP2 DENSITY POPULATION ANALYSIS *
                *********************************************

------------------------------------------------------------------------------
                           ORCA POPULATION ANALYSIS
------------------------------------------------------------------------------
Input electron density              ... dsgdb9nsd_118087.pmp2ur
BaseName (.gbw .S,...)              ... dsgdb9nsd_118087

                    ********************************
                    * MULLIKEN POPULATION ANALYSIS *
                    ********************************

-----------------------
MULLIKEN ATOMIC CHARGES
-----------------------
   0 C :   -0.365447
   1 C :    0.169871
   2 C :   -0.157954
   3 N :   -0.495975
   4 C :    0.156021
   5 O :   -0.560663
   6 C :   -0.156336
   7 C :    0.007659
   8 O :   -0.523020
   9 H :    0.113689
  10 H :    0.118191
  11 H :    0.133211
  12 H :    0.127863
  13 H :    0.115989
  14 H :    0.213125
  15 H :    0.075685
  16 H :    0.353312
  17 H :    0.094841
  18 H :    0.093344
  19 H :    0.062612
  20 H :    0.102016
  21 H :    0.321967
Sum of atomic charges:   -0.0000000

--------------------------------
MULLIKEN REDUCED ORBITAL CHARGES
--------------------------------
  0 C s       :     3.249437  s :     3.249437
      pz      :     1.060104  p :     3.003751
      px      :     1.045390
      py      :     0.898257
      dz2     :     0.016964  d :     0.103834
      dxz     :     0.015800
      dyz     :     0.025714
      dx2y2   :     0.022625
      dxy     :     0.022731
      f0      :     0.000894  f :     0.008425
      f+1     :     0.001422
      f-1     :     0.001325
      f+2     :     0.001114
      f-2     :     0.000673
      f+3     :     0.001527
      f-3     :     0.001471
  1 C s       :     3.036376  s :     3.036376
      pz      :     0.859522  p :     2.572121
      px      :     0.867521
      py      :     0.845078
      dz2     :     0.033897  d :     0.202953
      dxz     :     0.037829
      dyz     :     0.036178
      dx2y2   :     0.051353
      dxy     :     0.043696
      f0      :     0.001999  f :     0.018678
      f+1     :     0.002427
      f-1     :     0.002406
      f+2     :     0.002741
      f-2     :     0.002519
      f+3     :     0.003416
      f-3     :     0.003170
  2 C s       :     3.223467  s :     3.223467
      pz      :     0.791411  p :     2.796991
      px      :     0.990260
      py      :     1.015320
      dz2     :     0.027986  d :     0.123585
      dxz     :     0.021807
      dyz     :     0.031151
      dx2y2   :     0.021508
      dxy     :     0.021133
      f0      :     0.002767  f :     0.013910
      f+1     :     0.002353
      f-1     :     0.002415
      f+2     :     0.001379
      f-2     :     0.001754
      f+3     :     0.001438
      f-3     :     0.001804
  3 N s       :     3.614008  s :     3.614008
      pz      :     1.126882  p :     3.780766
      px      :     1.240420
      py      :     1.413465
      dz2     :     0.024576  d :     0.094067
      dxz     :     0.020738
      dyz     :     0.016967
      dx2y2   :     0.010770
      dxy     :     0.021016
      f0      :     0.001647  f :     0.007135
      f+1     :     0.001107
      f-1     :     0.001105
      f+2     :     0.000788
      f-2     :     0.001181
      f+3     :     0.000660
      f-3     :     0.000647
  4 C s       :     3.089554  s :     3.089554
      pz      :     0.969838  p :     2.537159
      px      :     0.918185
      py      :     0.649136
      dz2     :     0.041071  d :     0.199885
      dxz     :     0.029836
      dyz     :     0.036364
      dx2y2   :     0.039734
      dxy     :     0.052880
      f0      :     0.002178  f :     0.017381
      f+1     :     0.001927
      f-1     :     0.002124
      f+2     :     0.002726
      f-2     :     0.001625
      f+3     :     0.004044
      f-3     :     0.002757
  5 O s       :     3.799962  s :     3.799962
      pz      :     1.591505  p :     4.694465
      px      :     1.712452
      py      :     1.390508
      dz2     :     0.011850  d :     0.061780
      dxz     :     0.013807
      dyz     :     0.009209
      dx2y2   :     0.017309
      dxy     :     0.009605
      f0      :     0.000509  f :     0.004456
      f+1     :     0.000857
      f-1     :     0.000550
      f+2     :     0.000792
      f-2     :     0.000467
      f+3     :     0.000583
      f-3     :     0.000698
  6 C s       :     3.105392  s :     3.105392
      pz      :     0.994160  p :     2.914304
      px      :     0.937879
      py      :     0.982265
      dz2     :     0.029006  d :     0.126030
      dxz     :     0.028047
      dyz     :     0.015531
      dx2y2   :     0.032059
      dxy     :     0.021388
      f0      :     0.001600  f :     0.010610
      f+1     :     0.001755
      f-1     :     0.000965
      f+2     :     0.001332
      f-2     :     0.001372
      f+3     :     0.001669
      f-3     :     0.001918
  7 C s       :     3.183829  s :     3.183829
      pz      :     0.878158  p :     2.632444
      px      :     0.839088
      py      :     0.915198
      dz2     :     0.038975  d :     0.161330
      dxz     :     0.031953
      dyz     :     0.020313
      dx2y2   :     0.042788
      dxy     :     0.027302
      f0      :     0.001985  f :     0.014738
      f+1     :     0.002454
      f-1     :     0.001798
      f+2     :     0.002123
      f-2     :     0.001986
      f+3     :     0.002237
      f-3     :     0.002155
  8 O s       :     3.783965  s :     3.783965
      pz      :     1.715452  p :     4.674847
      px      :     1.327331
      py      :     1.632064
      dz2     :     0.011072  d :     0.059731
      dxz     :     0.009320
      dyz     :     0.011978
      dx2y2   :     0.009791
      dxy     :     0.017571
      f0      :     0.000592  f :     0.004477
      f+1     :     0.000731
      f-1     :     0.000583
      f+2     :     0.000543
      f-2     :     0.000698
      f+3     :     0.000462
      f-3     :     0.000868
  9 H s       :     0.861399  s :     0.861399
      pz      :     0.004826  p :     0.024912
      px      :     0.014149
      py      :     0.005937
 10 H s       :     0.856891  s :     0.856891
      pz      :     0.012307  p :     0.024918
      px      :     0.006769
      py      :     0.005842
 11 H s       :     0.841759  s :     0.841759
      pz      :     0.010627  p :     0.025030
      px      :     0.006825
      py      :     0.007579
 12 H s       :     0.845917  s :     0.845917
      pz      :     0.005709  p :     0.026220
      px      :     0.005035
      py      :     0.015477
 13 H s       :     0.858555  s :     0.858555
      pz      :     0.006102  p :     0.025456
      px      :     0.012641
      py      :     0.006713
 14 H s       :     0.747117  s :     0.747117
      pz      :     0.011836  p :     0.039758
      px      :     0.013919
      py      :     0.014003
 15 H s       :     0.899501  s :     0.899501
      pz      :     0.015316  p :     0.024813
      px      :     0.006001
      py      :     0.003496
 16 H s       :     0.598434  s :     0.598434
      pz      :     0.018561  p :     0.048254
      px      :     0.019334
      py      :     0.010359
 17 H s       :     0.879985  s :     0.879985
      pz      :     0.014481  p :     0.025173
      px      :     0.006019
      py      :     0.004673
 18 H s       :     0.881173  s :     0.881173
      pz      :     0.005297  p :     0.025483
      px      :     0.004949
      py      :     0.015236
 19 H s       :     0.913607  s :     0.913607
      pz      :     0.014127  p :     0.023781
      px      :     0.005422
      py      :     0.004233
 20 H s       :     0.873799  s :     0.873799
      pz      :     0.004761  p :     0.024185
      px      :     0.004337
      py      :     0.015086
 21 H s       :     0.629968  s :     0.629968
      pz      :     0.014784  p :     0.048065
      px      :     0.019185
      py      :     0.014096


                     *******************************
                     * LOEWDIN POPULATION ANALYSIS *
                     *******************************

----------------------
LOEWDIN ATOMIC CHARGES
----------------------
   0 C :   -0.247286
   1 C :   -0.304561
   2 C :   -0.219866
   3 N :   -0.027189
   4 C :   -0.284884
   5 O :   -0.036792
   6 C :   -0.232350
   7 C :   -0.316140
   8 O :   -0.074531
   9 H :    0.119447
  10 H :    0.124657
  11 H :    0.121371
  12 H :    0.124540
  13 H :    0.115216
  14 H :    0.158272
  15 H :    0.138893
  16 H :    0.183466
  17 H :    0.135015
  18 H :    0.134249
  19 H :    0.107136
  20 H :    0.113176
  21 H :    0.168162

-------------------------------
LOEWDIN REDUCED ORBITAL CHARGES
-------------------------------
  0 C s       :     2.815582  s :     2.815582
      pz      :     1.050106  p :     3.096475
      px      :     1.041548
      py      :     1.004821
      dz2     :     0.047983  d :     0.304723
      dxz     :     0.036699
      dyz     :     0.082670
      dx2y2   :     0.069667
      dxy     :     0.067703
      f0      :     0.002750  f :     0.030505
      f+1     :     0.003953
      f-1     :     0.004870
      f+2     :     0.003940
      f-2     :     0.003520
      f+3     :     0.006386
      f-3     :     0.005086
  1 C s       :     2.694317  s :     2.694317
      pz      :     0.879779  p :     2.813743
      px      :     0.948123
      py      :     0.985842
      dz2     :     0.115090  d :     0.705070
      dxz     :     0.126534
      dyz     :     0.124276
      dx2y2   :     0.180468
      dxy     :     0.158702
      f0      :     0.009051  f :     0.091431
      f+1     :     0.011871
      f-1     :     0.010749
      f+2     :     0.014861
      f-2     :     0.014494
      f+3     :     0.016922
      f-3     :     0.013483
  2 C s       :     2.785253  s :     2.785253
      pz      :     0.880277  p :     2.917926
      px      :     1.011930
      py      :     1.025718
      dz2     :     0.099191  d :     0.454507
      dxz     :     0.096288
      dyz     :     0.109693
      dx2y2   :     0.083881
      dxy     :     0.065454
      f0      :     0.013658  f :     0.062179
      f+1     :     0.012944
      f-1     :     0.012719
      f+2     :     0.003736
      f-2     :     0.007506
      f+3     :     0.005942
      f-3     :     0.005673
  3 N s       :     3.083707  s :     3.083707
      pz      :     1.188588  p :     3.708327
      px      :     1.179466
      py      :     1.340272
      dz2     :     0.057640  d :     0.215410
      dxz     :     0.052055
      dyz     :     0.045188
      dx2y2   :     0.020268
      dxy     :     0.040259
      f0      :     0.004916  f :     0.019744
      f+1     :     0.003911
      f-1     :     0.003224
      f+2     :     0.001966
      f-2     :     0.002719
      f+3     :     0.001736
      f-3     :     0.001273
  4 C s       :     2.739512  s :     2.739512
      pz      :     0.988896  p :     2.778668
      px      :     0.975160
      py      :     0.814612
      dz2     :     0.140540  d :     0.673784
      dxz     :     0.099740
      dyz     :     0.109083
      dx2y2   :     0.161203
      dxy     :     0.163219
      f0      :     0.009874  f :     0.092919
      f+1     :     0.007472
      f-1     :     0.012393
      f+2     :     0.016180
      f-2     :     0.008426
      f+3     :     0.021576
      f-3     :     0.016998
  5 O s       :     3.356283  s :     3.356283
      pz      :     1.531157  p :     4.576414
      px      :     1.613391
      py      :     1.431866
      dz2     :     0.016242  d :     0.096822
      dxz     :     0.019075
      dyz     :     0.017850
      dx2y2   :     0.026287
      dxy     :     0.017368
      f0      :     0.000697  f :     0.007274
      f+1     :     0.001176
      f-1     :     0.000937
      f+2     :     0.001513
      f-2     :     0.000492
      f+3     :     0.001322
      f-3     :     0.001137
  6 C s       :     2.776281  s :     2.776281
      pz      :     1.004984  p :     2.999609
      px      :     0.993129
      py      :     1.001496
      dz2     :     0.095831  d :     0.413272
      dxz     :     0.092336
      dyz     :     0.041530
      dx2y2   :     0.110175
      dxy     :     0.073400
      f0      :     0.005623  f :     0.043188
      f+1     :     0.006997
      f-1     :     0.003732
      f+2     :     0.005931
      f-2     :     0.006277
      f+3     :     0.007218
      f-3     :     0.007410
  7 C s       :     2.796747  s :     2.796747
      pz      :     0.945986  p :     2.867875
      px      :     0.939785
      py      :     0.982104
      dz2     :     0.142459  d :     0.573047
      dxz     :     0.113965
      dyz     :     0.075216
      dx2y2   :     0.133653
      dxy     :     0.107755
      f0      :     0.008338  f :     0.078471
      f+1     :     0.013619
      f-1     :     0.008381
      f+2     :     0.011548
      f-2     :     0.014079
      f+3     :     0.012172
      f-3     :     0.010335
  8 O s       :     3.360411  s :     3.360411
      pz      :     1.667286  p :     4.609133
      px      :     1.316975
      py      :     1.624872
      dz2     :     0.019471  d :     0.097801
      dxz     :     0.015532
      dyz     :     0.016582
      dx2y2   :     0.019531
      dxy     :     0.026684
      f0      :     0.000755  f :     0.007185
      f+1     :     0.001143
      f-1     :     0.000985
      f+2     :     0.000902
      f-2     :     0.001060
      f+3     :     0.000767
      f-3     :     0.001572
  9 H s       :     0.815950  s :     0.815950
      pz      :     0.013771  p :     0.064603
      px      :     0.036216
      py      :     0.014616
 10 H s       :     0.810602  s :     0.810602
      pz      :     0.031632  p :     0.064741
      px      :     0.018451
      py      :     0.014658
[...]
  5 O s       :     3.795525  s :     3.795525
      pz      :     1.567521  p :     4.632488
      px      :     1.686623
      py      :     1.378343
      dz2     :     0.011284  d :     0.059650
      dxz     :     0.012895
      dyz     :     0.009476
      dx2y2   :     0.015915
      dxy     :     0.010079
      f0      :     0.000507  f :     0.004390
      f+1     :     0.000829
      f-1     :     0.000542
      f+2     :     0.000776
      f-2     :     0.000470
      f+3     :     0.000591
      f-3     :     0.000675
  6 C s       :     3.128698  s :     3.128698
      pz      :     1.008346  p :     2.944448
      px      :     0.938256
      py      :     0.997846
      dz2     :     0.026106  d :     0.113803
      dxz     :     0.025760
      dyz     :     0.013754
      dx2y2   :     0.029711
      dxy     :     0.018472
      f0      :     0.001542  f :     0.010061
      f+1     :     0.001616
      f-1     :     0.000936
      f+2     :     0.001318
      f-2     :     0.001260
      f+3     :     0.001678
      f-3     :     0.001711
  7 C s       :     3.202975  s :     3.202975
      pz      :     0.906995  p :     2.694992
      px      :     0.850705
      py      :     0.937292
      dz2     :     0.034642  d :     0.152113
      dxz     :     0.031112
      dyz     :     0.019602
      dx2y2   :     0.040755
      dxy     :     0.026003
      f0      :     0.001925  f :     0.014062
      f+1     :     0.002199
      f-1     :     0.001770
      f+2     :     0.002054
      f-2     :     0.001947
      f+3     :     0.002259
      f-3     :     0.001908
  8 O s       :     3.785236  s :     3.785236
      pz      :     1.697971  p :     4.621992
      px      :     1.312529
      py      :     1.611493
      dz2     :     0.011039  d :     0.057659
      dxz     :     0.008994
      dyz     :     0.011601
      dx2y2   :     0.009964
      dxy     :     0.016061
      f0      :     0.000589  f :     0.004410
      f+1     :     0.000719
      f-1     :     0.000580
      f+2     :     0.000550
      f-2     :     0.000675
      f+3     :     0.000462
      f-3     :     0.000836
  9 H s       :     0.845145  s :     0.845145
      pz      :     0.005102  p :     0.023963
      px      :     0.012801
      py      :     0.006060
 10 H s       :     0.834752  s :     0.834752
      pz      :     0.011331  p :     0.023937
      px      :     0.006703
      py      :     0.005903
 11 H s       :     0.820879  s :     0.820879
      pz      :     0.009877  p :     0.023985
      px      :     0.006758
      py      :     0.007350
 12 H s       :     0.833701  s :     0.833701
      pz      :     0.005770  p :     0.025167
      px      :     0.005258
      py      :     0.014139
 13 H s       :     0.844870  s :     0.844870
      pz      :     0.006158  p :     0.024483
      px      :     0.011764
      py      :     0.006561
 14 H s       :     0.742673  s :     0.742673
      pz      :     0.011796  p :     0.038868
      px      :     0.013492
      py      :     0.013579
 15 H s       :     0.880878  s :     0.880878
      pz      :     0.013894  p :     0.023589
      px      :     0.006007
      py      :     0.003688
 16 H s       :     0.615528  s :     0.615528
      pz      :     0.018394  p :     0.048865
      px      :     0.019610
      py      :     0.010862
 17 H s       :     0.861780  s :     0.861780
      pz      :     0.013150  p :     0.024079
      px      :     0.006022
      py      :     0.004907
 18 H s       :     0.861704  s :     0.861704
      pz      :     0.005445  p :     0.024428
      px      :     0.005156
      py      :     0.013827
 19 H s       :     0.896074  s :     0.896074
      pz      :     0.012706  p :     0.022640
      px      :     0.005454
      py      :     0.004481
 20 H s       :     0.861549  s :     0.861549
      pz      :     0.004872  p :     0.022987
      px      :     0.004545
      py      :     0.013570
 21 H s       :     0.636032  s :     0.636032
      pz      :     0.015764  p :     0.048816
      px      :     0.018494
      py      :     0.014559


                     *******************************
                     * LOEWDIN POPULATION ANALYSIS *
                     *******************************

----------------------
LOEWDIN ATOMIC CHARGES
----------------------
   0 C :   -0.273531
   1 C :   -0.321798
   2 C :   -0.243203
   3 N :   -0.010159
   4 C :   -0.311631
   5 O :   -0.011417
   6 C :   -0.253702
   7 C :   -0.348531
   8 O :   -0.057251
   9 H :    0.128271
  10 H :    0.134169
  11 H :    0.130104
  12 H :    0.130983
  13 H :    0.122402
  14 H :    0.165373
  15 H :    0.147951
  16 H :    0.181516
  17 H :    0.143361
  18 H :    0.143304
  19 H :    0.114147
  20 H :    0.118750
  21 H :    0.170890

-------------------------------
LOEWDIN REDUCED ORBITAL CHARGES
-------------------------------
  0 C s       :     2.821392  s :     2.821392
      pz      :     1.064711  p :     3.129979
      px      :     1.055278
      py      :     1.009990
      dz2     :     0.044077  d :     0.292021
      dxz     :     0.033731
      dyz     :     0.082292
      dx2y2   :     0.064492
      dxy     :     0.067428
      f0      :     0.002777  f :     0.030139
      f+1     :     0.003823
      f-1     :     0.004764
      f+2     :     0.003980
      f-2     :     0.003463
      f+3     :     0.006377
      f-3     :     0.004956
  1 C s       :     2.701521  s :     2.701521
      pz      :     0.892928  p :     2.825907
      px      :     0.947966
      py      :     0.985013
      dz2     :     0.112808  d :     0.703901
      dxz     :     0.124587
      dyz     :     0.125441
      dx2y2   :     0.180761
      dxy     :     0.160304
      f0      :     0.008773  f :     0.090470
      f+1     :     0.011570
      f-1     :     0.010491
      f+2     :     0.014689
      f-2     :     0.014598
      f+3     :     0.017323
      f-3     :     0.013026
  2 C s       :     2.793185  s :     2.793185
      pz      :     0.887790  p :     2.942480
      px      :     1.019320
      py      :     1.035370
      dz2     :     0.095340  d :     0.446490
      dxz     :     0.095425
      dyz     :     0.109468
      dx2y2   :     0.083643
      dxy     :     0.062614
      f0      :     0.013597  f :     0.061047
      f+1     :     0.012716
      f-1     :     0.012208
      f+2     :     0.003722
      f-2     :     0.007287
      f+3     :     0.005981
      f-3     :     0.005536
  3 N s       :     3.090100  s :     3.090100
      pz      :     1.182701  p :     3.686001
      px      :     1.174411
      py      :     1.328889
      dz2     :     0.057472  d :     0.214296
      dxz     :     0.051627
      dyz     :     0.045223
      dx2y2   :     0.021228
      dxy     :     0.038747
      f0      :     0.004855  f :     0.019763
      f+1     :     0.003907
      f-1     :     0.003266
      f+2     :     0.002002
      f-2     :     0.002739
      f+3     :     0.001717
      f-3     :     0.001276
  4 C s       :     2.747225  s :     2.747225
      pz      :     0.998818  p :     2.801030
      px      :     0.978038
      py      :     0.824174
      dz2     :     0.138209  d :     0.672007
      dxz     :     0.099081
      dyz     :     0.110315
      dx2y2   :     0.159933
      dxy     :     0.164469
      f0      :     0.009498  f :     0.091369
      f+1     :     0.007272
      f-1     :     0.012240
      f+2     :     0.015984
      f-2     :     0.008433
      f+3     :     0.021064
      f-3     :     0.016876
  5 O s       :     3.360152  s :     3.360152
      pz      :     1.524787  p :     4.546991
      px      :     1.600073
      py      :     1.422131
      dz2     :     0.016045  d :     0.096897
      dxz     :     0.018890
      dyz     :     0.018202
      dx2y2   :     0.025799
      dxy     :     0.017962
      f0      :     0.000708  f :     0.007377
      f+1     :     0.001183
      f-1     :     0.000948
      f+2     :     0.001538
      f-2     :     0.000497
      f+3     :     0.001337
      f-3     :     0.001166
  6 C s       :     2.783335  s :     2.783335
      pz      :     1.015918  p :     3.025291
      px      :     0.997235
      py      :     1.012138
      dz2     :     0.092216  d :     0.402233
      dxz     :     0.090266
      dyz     :     0.040176
      dx2y2   :     0.107857
      dxy     :     0.071718
      f0      :     0.005530  f :     0.042842
      f+1     :     0.006840
      f-1     :     0.003717
      f+2     :     0.005923
      f-2     :     0.006289
      f+3     :     0.007310
      f-3     :     0.007233
  7 C s       :     2.803510  s :     2.803510
      pz      :     0.960195  p :     2.899589
      px      :     0.945509
      py      :     0.993884
      dz2     :     0.142380  d :     0.568494
      dxz     :     0.112552
      dyz     :     0.073839
      dx2y2   :     0.132090
      dxy     :     0.107633
      f0      :     0.008089  f :     0.076937
      f+1     :     0.013219
      f-1     :     0.008089
      f+2     :     0.011251
      f-2     :     0.014090
      f+3     :     0.012089
      f-3     :     0.010110
  8 O s       :     3.363778  s :     3.363778
      pz      :     1.657017  p :     4.588682
      px      :     1.317324
      py      :     1.614342
      dz2     :     0.019678  d :     0.097500
      dxz     :     0.015500
      dyz     :     0.016587
      dx2y2   :     0.019699
      dxy     :     0.026036
      f0      :     0.000767  f :     0.007290
      f+1     :     0.001168
      f-1     :     0.000996
      f+2     :     0.000914
      f-2     :     0.001087
      f+3     :     0.000770
      f-3     :     0.001588
  9 H s       :     0.806018  s :     0.806018
      pz      :     0.014401  p :     0.065711
      px      :     0.036051
      py      :     0.015259
 10 H s       :     0.800047  s :     0.800047
      pz      :     0.031677  p :     0.065784
      px      :     0.018891
      py      :     0.015216
 11 H s       :     0.803334  s :     0.803334
      pz      :     0.028511  p :     0.066562
      px      :     0.019033
      py      :     0.019018
 12 H s       :     0.800660  s :     0.800660
      pz      :     0.014577  p :     0.068357
      px      :     0.015019
      py      :     0.038761
 13 H s       :     0.810221  s :     0.810221
      pz      :     0.016629  p :     0.067376
      px      :     0.030996
      py      :     0.019752
 14 H s       :     0.720309  s :     0.720309
      pz      :     0.028337  p :     0.114318
      px      :     0.039927
      py      :     0.046055
 15 H s       :     0.791650  s :     0.791650
      pz      :     0.034720  p :     0.060399
      px      :     0.016141
      py      :     0.009538
 16 H s       :     0.651175  s :     0.651175
      pz      :     0.070581  p :     0.167308
      px      :     0.066994
      py      :     0.029734
 17 H s       :     0.792024  s :     0.792024
      pz      :     0.034434  p :     0.064615
      px      :     0.016479
      py      :     0.013701
 18 H s       :     0.791736  s :     0.791736
      pz      :     0.015597  p :     0.064960
      px      :     0.014308
      py      :     0.035054
 19 H s       :     0.823629  s :     0.823629
      pz      :     0.035401  p :     0.062224
      px      :     0.014393
      py      :     0.012429
 20 H s       :     0.816763  s :     0.816763
      pz      :     0.014037  p :     0.064487
      px      :     0.013173
      py      :     0.037277
 21 H s       :     0.666136  s :     0.666136
      pz      :     0.041686  p :     0.162973
      px      :     0.068609
      py      :     0.052678


                      *****************************
                      * MAYER POPULATION ANALYSIS *
                      *****************************

  NA   - Mulliken gross atomic population
  ZA   - Total nuclear charge
  QA   - Mulliken gross atomic charge
  VA   - Mayer's total valence
  BVA  - Mayer's bonded valence
  FA   - Mayer's free valence

  ATOM       NA         ZA         QA         VA         BVA        FA
  0 C      6.4234     6.0000    -0.4234     3.9932     3.6921     0.3012
  1 C      5.8868     6.0000     0.1132     4.0106     3.6574     0.3531
  2 C      6.2040     6.0000    -0.2040     4.0232     3.6971     0.3260
  3 N      7.4321     7.0000    -0.4321     3.1528     2.7298     0.4229
  4 C      5.9198     6.0000     0.0802     4.0137     3.6970     0.3167
  5 O      8.4921     8.0000    -0.4921     2.1988     1.7959     0.4029
  6 C      6.1970     6.0000    -0.1970     3.8774     3.5655     0.3119
  7 C      6.0641     6.0000    -0.0641     4.1285     3.8337     0.2948
  8 O      8.4693     8.0000    -0.4693     2.1990     1.8034     0.3955
  9 H      0.8691     1.0000     0.1309     0.9746     0.9250     0.0496
 10 H      0.8587     1.0000     0.1413     0.9734     0.9245     0.0489
 11 H      0.8449     1.0000     0.1551     0.9622     0.9142     0.0480
 12 H      0.8589     1.0000     0.1411     0.9864     0.9385     0.0479
 13 H      0.8694     1.0000     0.1306     0.9633     0.9144     0.0489
 14 H      0.7815     1.0000     0.2185     0.9529     0.9002     0.0528
 15 H      0.9045     1.0000     0.0955     0.9780     0.9277     0.0503
 16 H      0.6644     1.0000     0.3356     0.9262     0.8765     0.0497
 17 H      0.8859     1.0000     0.1141     1.0016     0.9511     0.0504
 18 H      0.8861     1.0000     0.1139     0.9874     0.9370     0.0504
 19 H      0.9187     1.0000     0.0813     0.9655     0.9141     0.0515
 20 H      0.8845     1.0000     0.1155     0.9801     0.9308     0.0493
 21 H      0.6848     1.0000     0.3152     0.9167     0.8658     0.0508

  Mayer bond orders larger than 0.1
B(  0-C ,  1-C ) :   0.9166 B(  0-C ,  9-H ) :   0.9243 B(  0-C , 10-H ) :   0.9312 
B(  0-C , 11-H ) :   0.9366 B(  1-C ,  2-C ) :   0.9310 B(  1-C ,  3-N ) :   0.9001 
B(  1-C ,  4-C ) :   0.9140 B(  2-C ,  3-N ) :   0.9028 B(  2-C , 12-H ) :   0.9085 
B(  2-C , 13-H ) :   0.9258 B(  3-N , 14-H ) :   0.8742 B(  4-C ,  5-O ) :   0.9320 
B(  4-C ,  6-C ) :   0.9119 B(  4-C , 15-H ) :   0.9285 B(  5-O , 16-H ) :   0.8057 
B(  6-C ,  7-C ) :   0.9465 B(  6-C ,  8-O ) :  -0.1019 B(  6-C , 17-H ) :   0.9113 
B(  6-C , 18-H ) :   0.9193 B(  7-C ,  8-O ) :   1.0220 B(  7-C , 19-H ) :   0.9288 
B(  7-C , 20-H ) :   0.9344 B(  8-O , 21-H ) :   0.8506 


-------
TIMINGS
-------

Total time                :  841.978 sec
Integral trafo            :    7.597 sec (  0.9%)
FC preparation            :    4.529 sec (  0.5%)
I/O of integrals          :    0.062 sec (  0.0%)
K(i,j) Operators          :   12.526 sec (  1.5%)
T(i,j) pair energies      :    1.061 sec (  0.1%)
V-calculation             :    0.019 sec (  0.0%)
V**(-1/2)                 :    0.136 sec (  0.0%)
Gamma(ia|P)               :   12.565 sec (  1.5%)
Gamma-Trafo               :    1.828 sec (  0.2%)
D(virtual)                :    4.738 sec (  0.6%)
D(internal)               :    4.289 sec (  0.5%)
W(virtual)                :    0.000 sec (  0.0%)
W(internal)               :    0.000 sec (  0.0%)
L(virtual)                :   12.666 sec (  1.5%)
L(internal)               :    0.234 sec (  0.0%)
G(D)                      :  108.523 sec ( 12.9%)
G(Z)                      :    0.000 sec (  0.0%)
Z-Vector Solution         :  670.334 sec ( 79.6%)
3-Index Derivative        :    0.000 sec (  0.0%)
2-Index Derivative        :    0.000 sec (  0.0%)
Separable Gradient (RIJ)  :    0.000 sec (  0.0%)
Separable Gradient (X)    :    0.000 sec (  0.0%)


---------------------------------------
MP2 TOTAL ENERGY:     -440.748707079 Eh
---------------------------------------

-------------------------   --------------------
FINAL SINGLE POINT ENERGY      -440.748707078913
-------------------------   --------------------


                            ***************************************
                            *     ORCA property calculations      *
                            ***************************************

                                    ---------------------
                                    Active property flags
                                    ---------------------
   (+) Dipole Moment


------------------------------------------------------------------------------
                       ORCA ELECTRIC PROPERTIES CALCULATION
------------------------------------------------------------------------------

Dipole Moment Calculation                       ... on
Quadrupole Moment Calculation                   ... off
Polarizability Calculation                      ... off
GBWName                                         ... dsgdb9nsd_118087.gbw
Electron density file                           ... dsgdb9nsd_118087.scfp.tmp

-------------
DIPOLE MOMENT
-------------
                                X             Y             Z
Electronic contribution:     -1.28464      -3.21365       1.32849
Nuclear contribution   :      1.74574       3.71006      -1.74691
                        -----------------------------------------
Total Dipole Moment    :      0.46110       0.49641      -0.41841
                        -----------------------------------------
Magnitude (a.u.)       :      0.79631
Magnitude (Debye)      :      2.02405


                         *** MP2 UNRELAXED DENSITY ***

------------------------------------------------------------------------------
                       ORCA ELECTRIC PROPERTIES CALCULATION
------------------------------------------------------------------------------

Dipole Moment Calculation                       ... on
Quadrupole Moment Calculation                   ... off
Polarizability Calculation                      ... off
GBWName                                         ... dsgdb9nsd_118087.gbw
Electron density file                           ... dsgdb9nsd_118087.pmp2ur

-------------
DIPOLE MOMENT
-------------
                                X             Y             Z
Electronic contribution:     -1.29078      -3.22500       1.34918
Nuclear contribution   :      1.74574       3.71006      -1.74691
                        -----------------------------------------
Total Dipole Moment    :      0.45496       0.48506      -0.39773
                        -----------------------------------------
Magnitude (a.u.)       :      0.77490
Magnitude (Debye)      :      1.96963


                           *** MP2 RELAXED DENSITY ***

------------------------------------------------------------------------------
                       ORCA ELECTRIC PROPERTIES CALCULATION
------------------------------------------------------------------------------

Dipole Moment Calculation                       ... on
Quadrupole Moment Calculation                   ... off
Polarizability Calculation                      ... off
GBWName                                         ... dsgdb9nsd_118087.gbw
Electron density file                           ... dsgdb9nsd_118087.pmp2re

-------------
DIPOLE MOMENT
-------------
                                X             Y             Z
Electronic contribution:     -1.29888      -3.24083       1.39514
Nuclear contribution   :      1.74574       3.71006      -1.74691
                        -----------------------------------------
Total Dipole Moment    :      0.44687       0.46923      -0.35177
                        -----------------------------------------
Magnitude (a.u.)       :      0.73730
Magnitude (Debye)      :      1.87407


Timings for individual modules:

Sum of individual times         ...     1024.774 sec (=  17.080 min)
GTO integral calculation        ...        0.581 sec (=   0.010 min)   0.1 %
SCF iterations                  ...      182.067 sec (=   3.034 min)  17.8 %
MP2 module                      ...      842.125 sec (=  14.035 min)  82.2 %
                             ****ORCA TERMINATED NORMALLY****
TOTAL RUN TIME: 0 days 0 hours 17 minutes 5 seconds 275 msec
