
                                 *****************
                                 * O   R   C   A *
                                 *****************

           --- An Ab Initio, DFT and Semiempirical electronic structure package ---

                  #######################################################
                  #                        -***-                        #
                  #  Department of molecular theory and spectroscopy    #
                  #              Directorship: Frank Neese              #
                  # Max Planck Institute for Chemical Energy Conversion #
                  #                  D-45470 Muelheim/Ruhr              #
                  #                       Germany                       #
                  #                                                     #
                  #                  All rights reserved                #
                  #                        -***-                        #
                  #######################################################


                         Program Version 3.0.3 - RELEASE   -


 With contributions from (in alphabetic order):
   Ute Becker             : Parallelization
   Dmytro Bykov           : SCF Hessian
   Dmitry Ganyushin       : Spin-Orbit,Spin-Spin,Magnetic field MRCI
   Andreas Hansen         : Spin unrestricted coupled pair/coupled cluster methods
   Dimitrios Liakos       : Extrapolation schemes; parallel MDCI
   Robert Izsak           : Overlap fitted RIJCOSX, COSX-SCS-MP3
   Christian Kollmar      : KDIIS, OOCD, Brueckner-CCSD(T), CCSD density
   Simone Kossmann        : Meta GGA functionals, TD-DFT gradient, OOMP2, MP2 Hessian
   Taras Petrenko         : DFT Hessian,TD-DFT gradient, ASA and ECA modules, normal mode analysis, Resonance Raman, ABS, FL, XAS/XES, NRVS
   Christoph Reimann      : Effective Core Potentials
   Michael Roemelt        : Restricted open shell CIS
   Christoph Riplinger    : Improved optimizer, TS searches, QM/MM, DLPNO-CCSD
   Barbara Sandhoefer     : DKH picture change effects
   Igor Schapiro          : Molecular dynamics
   Kantharuban Sivalingam : CASSCF convergence, NEVPT2
   Boris Wezisla          : Elementary symmetry handling
   Frank Wennmohs         : Technical directorship


 We gratefully acknowledge several colleagues who have allowed us to
 interface, adapt or use parts of their codes:
   Stefan Grimme, W. Hujo, H. Kruse, T. Risthaus : VdW corrections, initial TS optimization,
                                                   DFT functionals, gCP
   Ed Valeev                                     : LibInt (2-el integral package), F12 methods
   Garnet Chan, S. Sharma, R. Olivares           : DMRG
   Ulf Ekstrom                                   : XCFun DFT Library
   Mihaly Kallay                                 : mrcc  (arbitrary order and MRCC methods)
   Andreas Klamt, Michael Diedenhofen            : otool_cosmo (COSMO solvation model)
   Frank Weinhold                                : gennbo (NPA and NBO analysis)
   Christopher J. Cramer and Donald G. Truhlar   : smd solvation model


 Your calculation uses the libint2 library for the computation of 2-el integrals
 For citations please refer to: http://libint.valeyev.net

 This ORCA versions uses:
   CBLAS   interface :  Fast vector & matrix operations
   LAPACKE interface :  Fast linear algebra routines
   SCALAPACK package :  Parallel linear algebra routines


Your calculation utilizes the basis: Ahlrichs-TZV
Cite in your paper:
H - Kr: A. Schaefer, H. Horn and R. Ahlrichs, J. Chem. Phys. 97, 2571 (1992).

The def2-TZV basis will be loaded
Cite in your paper:
 	F. Weigend, R. Ahlrichs, Phys. Chem. Chem. Phys. 2005, 7, 3297.

================================================================================
                                        WARNINGS
                       Please study these warnings very carefully!
================================================================================
Now building the actual basis set


INFO   : the flag for use of LIBINT has been found!

================================================================================
                                       INPUT FILE
================================================================================
NAME = dsgdb9nsd_127605.inp
|  1> ! RI-MP2 RIJK def2-TZVP def2-TZVP/C def2-TZVP/JK TIGHTSCF
|  2> % maxcore 2000
|  3> % mp2 density relaxed end
|  4> *xyz 0 1
|  5>  C       -0.0027987206     1.4123543651     0.1417052471 
|  6>  N       -0.0081950502    -0.0299876388     0.0225934428 
|  7>  N       -0.0557105222    -0.6455363661    -1.1484135752 
|  8>  C       -0.0259615936    -1.9446079834    -0.8406142894 
|  9>  C        0.0425740603    -2.0474439821     0.5591983973 
| 10>  N        0.0937995597    -3.1615236651     1.3904525982 
| 11>  C        0.0876424487    -4.4623199580     0.9677754072 
| 12>  O        0.0366283209    -4.8196495485    -0.1873091549 
| 13>  N        0.0537678215    -0.8242319492     1.0909878213 
| 14>  H        0.9422624733     1.7543326173     0.5722250710 
| 15>  H       -0.1240762777     1.8200916745    -0.8604648195 
| 16>  H       -0.8261549331     1.7365877383     0.7824631908 
| 17>  H       -0.0544327997    -2.7205374677    -1.5830820840 
| 18>  H        0.1387829495    -2.9727549266     2.3807463640 
| 19>  H        0.1356620531    -5.1624513896     1.8227646232 
| 20> *
| 21> 
| 22>                          ****END OF INPUT****
================================================================================

                       ****************************
                       * Single Point Calculation *
                       ****************************

---------------------------------
CARTESIAN COORDINATES (ANGSTROEM)
---------------------------------
  C     -0.002799    1.412354    0.141705
  N     -0.008195   -0.029988    0.022593
  N     -0.055711   -0.645536   -1.148414
  C     -0.025962   -1.944608   -0.840614
  C      0.042574   -2.047444    0.559198
  N      0.093800   -3.161524    1.390453
  C      0.087642   -4.462320    0.967775
  O      0.036628   -4.819650   -0.187309
  N      0.053768   -0.824232    1.090988
  H      0.942262    1.754333    0.572225
  H     -0.124076    1.820092   -0.860465
  H     -0.826155    1.736588    0.782463
  H     -0.054433   -2.720537   -1.583082
  H      0.138783   -2.972755    2.380746
  H      0.135662   -5.162451    1.822765

----------------------------
CARTESIAN COORDINATES (A.U.)
----------------------------
  NO LB      ZA    FRAG    MASS        X           Y           Z
   0 C     6.0000    0    12.011         -0.005288815459364          2.668962954087227          0.267784108758639
   1 N     7.0000    0    14.007         -0.015486400531737         -0.056668424734951          0.042695419314415
   2 N     7.0000    0    14.007         -0.105277629735740         -1.219886941415727         -2.170187145605379
   3 C     6.0000    0    12.011         -0.049060301904163         -3.674776526462884         -1.588530791226822
   4 C     6.0000    0    12.011          0.080453314376049         -3.869108400714165          1.056731825424689
   5 N     7.0000    0    14.007          0.177255479315397         -5.974413892949968          2.627574612797245
   6 C     6.0000    0    12.011          0.165620225749243         -8.432562642550982          1.828830478752121
   7 O     8.0000    0    15.999          0.069217495246384         -9.107817708142212         -0.353963005137234
   8 N     7.0000    0    14.007          0.101606457452563         -1.557572654816094          2.061668197700418
   9 H     1.0000    0     1.008          1.780618020808286          3.315208194502280          1.081348671153644
  10 H     1.0000    0     1.008         -0.234470184569361          3.439474803435142         -1.626042856728983
  11 H     1.0000    0     1.008         -1.561206567747033          3.281675232912709          1.478641140486171
  12 H     1.0000    0     1.008         -0.102863084135591         -5.141070751024633         -2.991591586277318
  13 H     1.0000    0     1.008          0.262261766612823         -5.617692674539172          4.498958622288797
  14 H     1.0000    0     1.008          0.256364127124483         -9.755619306025201          3.444525944448163

--------------------------------
INTERNAL COORDINATES (ANGSTROEM)
--------------------------------
 C      0   0   0   0.000000     0.000     0.000
 N      1   0   0   1.447262     0.000     0.000
 N      2   1   0   1.323788   122.435     0.000
 C      3   2   1   1.335370   104.339   179.210
 C      4   3   2   1.405257   107.571   359.922
 N      5   4   3   1.390964   130.973   179.914
 C      6   5   4   1.367759   125.232     0.063
 O      7   6   5   1.210168   125.168     0.000
 N      2   1   3   1.332715   121.856   179.031
 H      1   2   3   1.093360   110.325   244.680
 H      1   2   3   1.088716   107.281     4.465
 H      1   2   3   1.092526   109.951   124.271
 H      4   3   2   1.074307   122.870   179.816
 H      6   5   4   1.009128   115.994   180.056
 H      7   6   5   1.106118   111.279   179.996

---------------------------
INTERNAL COORDINATES (A.U.)
---------------------------
 C      0   0   0   0.000000     0.000     0.000
 N      1   0   0   2.734929     0.000     0.000
 N      2   1   0   2.501597   122.435     0.000
 C      3   2   1   2.523483   104.339   179.210
 C      4   3   2   2.655551   107.571   359.922
 N      5   4   3   2.628541   130.973   179.914
 C      6   5   4   2.584690   125.232     0.063
 O      7   6   5   2.286887   125.168     0.000
 N      2   1   3   2.518467   121.856   179.031
 H      1   2   3   2.066152   110.325   244.680
 H      1   2   3   2.057375   107.281     4.465
 H      1   2   3   2.064575   109.951   124.271
 H      4   3   2   2.030146   122.870   179.816
 H      6   5   4   1.906975   115.994   180.056
 H      7   6   5   2.090260   111.279   179.996

---------------------
BASIS SET INFORMATION
---------------------
There are 4 groups of distinct atoms

 Group   1 Type C   : 11s6p2d1f contracted to 5s3p2d1f pattern {62111/411/11/1}
 Group   2 Type N   : 11s6p2d1f contracted to 5s3p2d1f pattern {62111/411/11/1}
 Group   3 Type O   : 11s6p2d1f contracted to 5s3p2d1f pattern {62111/411/11/1}
 Group   4 Type H   : 5s1p contracted to 3s1p pattern {311/1}

Atom   0C    basis set group =>   1
Atom   1N    basis set group =>   2
Atom   2N    basis set group =>   2
Atom   3C    basis set group =>   1
Atom   4C    basis set group =>   1
Atom   5N    basis set group =>   2
Atom   6C    basis set group =>   1
Atom   7O    basis set group =>   3
Atom   8N    basis set group =>   2
Atom   9H    basis set group =>   4
Atom  10H    basis set group =>   4
Atom  11H    basis set group =>   4
Atom  12H    basis set group =>   4
Atom  13H    basis set group =>   4
Atom  14H    basis set group =>   4
-------------------------------
AUXILIARY BASIS SET INFORMATION
-------------------------------
There are 4 groups of distinct atoms

 Group   1 Type C   : 14s10p6d2f1g contracted to 10s8p5d1f1g pattern {5111111111/31111111/21111/2/1}
 Group   2 Type N   : 14s10p6d2f1g contracted to 10s8p4d2f1g pattern {5111111111/31111111/3111/11/1}
 Group   3 Type O   : 14s10p6d2f1g contracted to 10s8p4d2f1g pattern {5111111111/31111111/3111/11/1}
 Group   4 Type H   : 4s2p2d contracted to 2s2p2d pattern {31/11/11}

Atom   0C    basis set group =>   1
Atom   1N    basis set group =>   2
Atom   2N    basis set group =>   2
Atom   3C    basis set group =>   1
Atom   4C    basis set group =>   1
Atom   5N    basis set group =>   2
Atom   6C    basis set group =>   1
Atom   7O    basis set group =>   3
Atom   8N    basis set group =>   2
Atom   9H    basis set group =>   4
Atom  10H    basis set group =>   4
Atom  11H    basis set group =>   4
Atom  12H    basis set group =>   4
Atom  13H    basis set group =>   4
Atom  14H    basis set group =>   4
------------------------------------------------------------------------------
                           ORCA GTO INTEGRAL CALCULATION
                           -- RI-GTO INTEGRALS CHOSEN --
------------------------------------------------------------------------------

                         BASIS SET STATISTICS AND STARTUP INFO

Gaussian basis set:
 # of primitive gaussian shells          ...  216
 # of primitive gaussian functions       ...  462
 # of contracted shells                  ...  123
 # of contracted basis functions         ...  315
 Highest angular momentum                ...    3
 Maximum contraction depth               ...    6
Auxiliary gaussian basis set:
 # of primitive gaussian shells          ...  345
 # of primitive gaussian functions       ...  993
 # of contracted shells                  ...  261
 # of contracted aux-basis functions     ...  793
 Highest angular momentum                ...    4
 Maximum contraction depth               ...    5
Ratio of auxiliary to basis functions    ...  2.52
Integral package used                  ... LIBINT
 One Electron integrals                  ... done
 Ordering auxiliary basis shells         ... done
 Integral threshhold             Thresh  ...  2.500e-11
 Primitive cut-off               TCut    ...  2.500e-12
 Pre-screening matrix                    ... done
 Shell pair data                         ... 
 Ordering of the shell pairs             ... done (   0.001 sec) 6709 of 7626 pairs
 Determination of significant pairs      ... done (   0.000 sec)
 Creation of shell pair data             ... done (   0.002 sec)
 Storage of shell pair data              ... done (   0.001 sec)
 Shell pair data done in (   0.004 sec)
 Computing two index integrals           ... done
 Cholesky decomposition of the V-matrix  ... done


Timings:
 Total evaluation time                   ...   0.376 sec (  0.006 min)
 One electron matrix time                ...   0.072 sec (  0.001 min) = 19.2%
 Schwartz matrix evaluation time         ...   0.220 sec (  0.004 min) = 58.4%
 Two index repulsion integral time       ...   0.019 sec (  0.000 min) =  5.1%
 Cholesky decomposition of V             ...   0.030 sec (  0.001 min) =  8.0%
 Three index repulsion integral time     ...   0.000 sec (  0.000 min) =  0.0%

-------------------------------------------------------------------------------
                                 ORCA SCF
-------------------------------------------------------------------------------

------------
SCF SETTINGS
------------
Hamiltonian:
 Ab initio Hamiltonian  Method          .... Hartree-Fock(GTOs)
 RI-approximation to the Coulomb term is turned on
   Number of auxiliary basis functions  .... 793
   RI-JK (J+K treated both via RI)      .... on


General Settings:
 Integral files         IntName         .... dsgdb9nsd_127605
 Hartree-Fock type      HFTyp           .... RHF
 Total Charge           Charge          ....    0
 Multiplicity           Mult            ....    1
 Number of Electrons    NEL             ....   66
 Basis Dimension        Dim             ....  315
 Nuclear Repulsion      ENuc            ....    435.0921631863 Eh

Convergence Acceleration:
 DIIS                   CNVDIIS         .... on
   Start iteration      DIISMaxIt       ....    12
   Startup error        DIISStart       ....  0.200000
   # of expansion vecs  DIISMaxEq       ....     5
   Bias factor          DIISBfac        ....   1.050
   Max. coefficient     DIISMaxC        ....  10.000
 Newton-Raphson         CNVNR           .... off
 SOSCF                  CNVSOSCF        .... on
   Start iteration      SOSCFMaxIt      ....   150
   Startup grad/error   SOSCFStart      ....  0.003300
 Level Shifting         CNVShift        .... on
   Level shift para.    LevelShift      ....    0.2500
   Turn off err/grad.   ShiftErr        ....    0.0010
 Zerner damping         CNVZerner       .... off
 Static damping         CNVDamp         .... on
   Fraction old density DampFac         ....    0.7000
   Max. Damping (<1)    DampMax         ....    0.9800
   Min. Damping (>=0)   DampMin         ....    0.0000
   Turn off err/grad.   DampErr         ....    0.1000
 Fernandez-Rico         CNVRico         .... off

SCF Procedure:
 Maximum # iterations   MaxIter         ....   125
 SCF integral mode      SCFMode         .... Direct
   Integral package                     .... LIBINT
 Reset frequeny         DirectResetFreq ....    20
 Integral Threshold     Thresh          ....  2.500e-11 Eh
 Primitive CutOff       TCut            ....  2.500e-12 Eh

Convergence Tolerance:
 Convergence Check Mode ConvCheckMode   .... Total+1el-Energy
 Energy Change          TolE            ....  1.000e-08 Eh
 1-El. energy change                    ....  1.000e-05 Eh
 Orbital Gradient       TolG            ....  1.000e-05
 Orbital Rotation angle TolX            ....  1.000e-05
 DIIS Error             TolErr          ....  5.000e-07


Diagonalization of the overlap matrix:
Smallest eigenvalue                        ... 8.571e-05
Time for diagonalization                   ...    0.032 sec
Threshold for overlap eigenvalues          ... 1.000e-08
Number of eigenvalues below threshold      ... 0
Time for construction of square roots      ...    0.015 sec
Total time needed                          ...    0.047 sec

-------------------
DFT GRID GENERATION
-------------------

General Integration Accuracy     IntAcc      ...  4.340
Radial Grid Type                 RadialGrid  ... Gauss-Chebyshev
Angular Grid (max. acc.)         AngularGrid ... Lebedev-110
Angular grid pruning method      GridPruning ... 3 (G Style)
Weight generation scheme         WeightScheme... Becke
Basis function cutoff            BFCut       ...    1.0000e-11
Integration weight cutoff        WCut        ...    1.0000e-14
Grids for H and He will be reduced by one unit

# of grid points (after initial pruning)     ...  19912 (   0.0 sec)
# of grid points (after weights+screening)   ...  18654 (   0.1 sec)
nearest neighbour list constructed           ...    0.0 sec
Grid point re-assignment to atoms done       ...    0.0 sec
Grid point division into batches done        ...    0.0 sec
Reduced shell lists constructed in    1.2 sec

Total number of grid points                  ...    18654
Total number of batches                      ...      299
Average number of points per batch           ...       62
Average number of grid points per atom       ...     1244
Average number of shells per batch           ...    78.28 (63.64%)
Average number of basis functions per batch  ...   205.27 (65.17%)
Average number of large shells per batch     ...    61.20 (78.19%)
Average number of large basis fcns per batch ...   159.47 (77.69%)
Average number of aux-shells per batch       ...    78.28 (29.99%)
Average number of aux functions per batch    ...   205.27 (  inf%)
Maximum spatial batch extension              ...  31.36, 19.72, 18.84 au
Average spatial batch extension              ...   4.12,  3.41,  3.61 au

Time for grid setup =    1.255 sec

------------------------------
INITIAL GUESS: MODEL POTENTIAL
------------------------------
Loading Hartree-Fock densities                     ... done
Calculating cut-offs                               ... done
Setting up the integral package                    ... done
Initializing the effective Hamiltonian             ... done
Starting the Coulomb interaction                   ... done (   0.5 sec)
Reading the grid                                   ... done
Mapping shells                                     ... done
Starting the XC term evaluation                    ... done (   0.6 sec)
Transforming the Hamiltonian                       ... done (   0.0 sec)
Diagonalizing the Hamiltonian                      ... done (   0.0 sec)
Back transforming the eigenvectors                 ... done (   0.0 sec)
Now organizing SCF variables                       ... done
                      ------------------
                      INITIAL GUESS DONE (   2.5 sec)
                      ------------------
--------------
SCF ITERATIONS
--------------
ITER       Energy         Delta-E        Max-DP      RMS-DP      [F,P]     Damp
  0   -447.4202642035   0.000000000000 0.04279569  0.00074187  0.3031427 0.7000
  1   -447.2945904347   0.125673768766 0.04327455  0.00077729  0.2941721 0.7000
                               ***Turning on DIIS***
  2   -447.3299960001  -0.035405565382 0.02888653  0.00057409  0.1885176 0.7000
  3   -448.1950593669  -0.865063366804 0.01098653  0.00032353  0.1349794 0.7000
  4   -447.7250111576   0.470048209312 0.02495747  0.00077365  0.0861957 0.0000
  5   -447.7860473524  -0.061036194857 0.01524378  0.00023062  0.0472140 0.0000
  6   -447.7029493986   0.083097953837 0.00548059  0.00009485  0.0099841 0.0000
  7   -447.7123205303  -0.009371131678 0.00269261  0.00005304  0.0063590 0.0000
  8   -447.7258657273  -0.013545196970 0.00217609  0.00003791  0.0052204 0.0000
                      *** Initiating the SOSCF procedure ***
                           *** Shutting down DIIS ***
                      *** Re-Reading the Fockian *** 
                      *** Removing any level shift *** 
ITER      Energy       Delta-E        Grad      Rot      Max-DP    RMS-DP
  9   -447.75692092  -0.0310551899  0.000388  0.000388  0.000365  0.000009
 10   -447.75847544  -0.0015545256  0.000253  0.000402  0.000260  0.000006
 11   -447.75847697  -0.0000015236  0.000100  0.000469  0.000268  0.000008
 12   -447.75847764  -0.0000006715  0.000050  0.000074  0.000071  0.000002
 13   -447.75847773  -0.0000000898  0.000014  0.000023  0.000024  0.000001
 14   -447.75847774  -0.0000000078  0.000007  0.000022  0.000012  0.000000
                  ***Gradient check signals convergence***
              ***Rediagonalizing the Fockian in SOSCF/NRSCF***

               *****************************************************
               *                     SUCCESS                       *
               *           SCF CONVERGED AFTER  15 CYCLES          *
               *****************************************************


----------------
TOTAL SCF ENERGY
----------------

Total Energy       :         -447.75847774 Eh          -12184.12761 eV

Components:
Nuclear Repulsion  :          435.09216319 Eh           11839.45967 eV
Electronic Energy  :         -882.85064092 Eh          -24023.58728 eV

One Electron Energy:        -1472.33117139 Eh          -40064.16800 eV
Two Electron Energy:          589.48053047 Eh           16040.58072 eV

Virial components:
Potential Energy   :         -894.79705681 Eh          -24348.66578 eV
Kinetic Energy     :          447.03857908 Eh           12164.53817 eV
Virial Ratio       :            2.00161037


---------------
SCF CONVERGENCE
---------------

  Last Energy change         ...   -1.7038e-09  Tolerance :   1.0000e-08
  Last MAX-Density change    ...    4.4692e-06  Tolerance :   1.0000e-07
  Last RMS-Density change    ...    9.8317e-08  Tolerance :   5.0000e-09
  Last Orbital Gradient      ...    2.4799e-06  Tolerance :   1.0000e-05
  Last Orbital Rotation      ...    1.1168e-05  Tolerance :   1.0000e-05

             **** THE GBW FILE WAS UPDATED (dsgdb9nsd_127605.gbw) ****
             **** DENSITY FILE WAS UPDATED (dsgdb9nsd_127605.scfp.tmp) ****
             **** ENERGY FILE WAS UPDATED (dsgdb9nsd_127605.en.tmp) ****
----------------
ORBITAL ENERGIES
----------------

  NO   OCC          E(Eh)            E(eV) 
   0   2.0000     -20.542914      -559.0011 
   1   2.0000     -15.681554      -426.7168 
   2   2.0000     -15.619597      -425.0308 
   3   2.0000     -15.617425      -424.9717 
   4   2.0000     -15.607553      -424.7031 
   5   2.0000     -11.369439      -309.3782 
   6   2.0000     -11.313151      -307.8465 
   7   2.0000     -11.281049      -306.9729 
   8   2.0000     -11.257182      -306.3235 
   9   2.0000      -1.452632       -39.5281 
  10   2.0000      -1.404075       -38.2068 
  11   2.0000      -1.275627       -34.7116 
  12   2.0000      -1.186991       -32.2997 
  13   2.0000      -1.132328       -30.8122 
  14   2.0000      -0.970175       -26.3998 
  15   2.0000      -0.896568       -24.3969 
  16   2.0000      -0.832479       -22.6529 
  17   2.0000      -0.804928       -21.9032 
  18   2.0000      -0.738300       -20.0902 
  19   2.0000      -0.715559       -19.4714 
  20   2.0000      -0.686226       -18.6732 
  21   2.0000      -0.671885       -18.2829 
  22   2.0000      -0.626055       -17.0358 
  23   2.0000      -0.610270       -16.6063 
  24   2.0000      -0.606257       -16.4971 
  25   2.0000      -0.576441       -15.6858 
  26   2.0000      -0.565464       -15.3871 
  27   2.0000      -0.510167       -13.8824 
  28   2.0000      -0.476047       -12.9539 
  29   2.0000      -0.474334       -12.9073 
  30   2.0000      -0.451758       -12.2930 
  31   2.0000      -0.394296       -10.7294 
  32   2.0000      -0.336312        -9.1515 
  33   0.0000       0.125091         3.4039 
  34   0.0000       0.130748         3.5578 
  35   0.0000       0.148989         4.0542 
  36   0.0000       0.152702         4.1552 
  37   0.0000       0.184565         5.0223 
  38   0.0000       0.194939         5.3045 
  39   0.0000       0.210726         5.7341 
  40   0.0000       0.222383         6.0514 
  41   0.0000       0.224689         6.1141 
  42   0.0000       0.232809         6.3350 
  43   0.0000       0.246446         6.7062 
  44   0.0000       0.259936         7.0732 
  45   0.0000       0.283880         7.7248 
  46   0.0000       0.297135         8.0855 
  47   0.0000       0.299176         8.1410 
  48   0.0000       0.324298         8.8246 
  49   0.0000       0.332393         9.0449 
  50   0.0000       0.368279        10.0214 
  51   0.0000       0.396665        10.7938 
  52   0.0000       0.400240        10.8911 
  53   0.0000       0.405022        11.0212 
  54   0.0000       0.421151        11.4601 
  55   0.0000       0.424433        11.5494 
  56   0.0000       0.460294        12.5252 
  57   0.0000       0.476234        12.9590 
  58   0.0000       0.481243        13.0953 
  59   0.0000       0.498468        13.5640 
  60   0.0000       0.523697        14.2505 
  61   0.0000       0.533308        14.5121 
  62   0.0000       0.552554        15.0357 
  63   0.0000       0.560254        15.2453 
  64   0.0000       0.567508        15.4427 
  65   0.0000       0.573923        15.6173 
  66   0.0000       0.575054        15.6480 
  67   0.0000       0.596597        16.2342 
  68   0.0000       0.612204        16.6589 
  69   0.0000       0.616746        16.7825 
  70   0.0000       0.628567        17.1042 
  71   0.0000       0.639001        17.3881 
  72   0.0000       0.645403        17.5623 
  73   0.0000       0.654872        17.8200 
  74   0.0000       0.682395        18.5689 
  75   0.0000       0.685024        18.6404 
  76   0.0000       0.686281        18.6747 
  77   0.0000       0.704160        19.1612 
  78   0.0000       0.720870        19.6159 
  79   0.0000       0.729582        19.8529 
  80   0.0000       0.735279        20.0080 
  81   0.0000       0.776434        21.1278 
  82   0.0000       0.785144        21.3649 
  83   0.0000       0.805668        21.9233 
  84   0.0000       0.813617        22.1396 
  85   0.0000       0.839392        22.8410 
  86   0.0000       0.851073        23.1589 
  87   0.0000       0.861213        23.4348 
  88   0.0000       0.896258        24.3884 
  89   0.0000       0.926836        25.2205 
  90   0.0000       0.938831        25.5469 
  91   0.0000       0.951966        25.9043 
  92   0.0000       0.961580        26.1659 
  93   0.0000       0.977619        26.6024 
  94   0.0000       0.979103        26.6428 
  95   0.0000       1.000314        27.2199 
  96   0.0000       1.004667        27.3384 
  97   0.0000       1.041365        28.3370 
  98   0.0000       1.075324        29.2611 
  99   0.0000       1.092071        29.7168 
 100   0.0000       1.124782        30.6069 
 101   0.0000       1.164557        31.6892 
 102   0.0000       1.194569        32.5059 
 103   0.0000       1.223793        33.3011 
 104   0.0000       1.237543        33.6752 
 105   0.0000       1.279616        34.8201 
 106   0.0000       1.320841        35.9419 
 107   0.0000       1.335489        36.3405 
 108   0.0000       1.365353        37.1531 
 109   0.0000       1.402397        38.1612 
 110   0.0000       1.421840        38.6902 
 111   0.0000       1.455350        39.6021 
 112   0.0000       1.483589        40.3705 
 113   0.0000       1.499765        40.8107 
 114   0.0000       1.551018        42.2054 
 115   0.0000       1.586467        43.1700 
 116   0.0000       1.630025        44.3552 
 117   0.0000       1.643443        44.7203 
 118   0.0000       1.662460        45.2378 
 119   0.0000       1.672551        45.5124 
 120   0.0000       1.703558        46.3562 
 121   0.0000       1.710798        46.5532 
 122   0.0000       1.713608        46.6296 
 123   0.0000       1.715612        46.6842 
 124   0.0000       1.736280        47.2466 
 125   0.0000       1.745212        47.4896 
 126   0.0000       1.748844        47.5885 
 127   0.0000       1.770267        48.1714 
 128   0.0000       1.771730        48.2112 
 129   0.0000       1.796642        48.8891 
 130   0.0000       1.807784        49.1923 
 131   0.0000       1.819070        49.4994 
 132   0.0000       1.844972        50.2042 
 133   0.0000       1.897221        51.6260 
 134   0.0000       1.898512        51.6611 
 135   0.0000       1.907568        51.9076 
 136   0.0000       1.939553        52.7779 
 137   0.0000       1.949826        53.0575 
 138   0.0000       1.959646        53.3247 
 139   0.0000       2.000739        54.4429 
 140   0.0000       2.027497        55.1710 
 141   0.0000       2.046259        55.6815 
 142   0.0000       2.069785        56.3217 
 143   0.0000       2.102200        57.2038 
 144   0.0000       2.116964        57.6055 
 145   0.0000       2.142955        58.3128 
 146   0.0000       2.159025        58.7501 
 147   0.0000       2.188877        59.5624 
 148   0.0000       2.195509        59.7428 
 149   0.0000       2.270659        61.7878 
 150   0.0000       2.275929        61.9312 
 151   0.0000       2.289020        62.2874 
 152   0.0000       2.291791        62.3628 
 153   0.0000       2.305484        62.7354 
 154   0.0000       2.350724        63.9665 
 155   0.0000       2.394534        65.1586 
 156   0.0000       2.424893        65.9847 
 157   0.0000       2.428707        66.0885 
 158   0.0000       2.430625        66.1407 
 159   0.0000       2.471030        67.2401 
 160   0.0000       2.478226        67.4360 
 161   0.0000       2.533020        68.9270 
 162   0.0000       2.577492        70.1371 
 163   0.0000       2.601351        70.7864 
 164   0.0000       2.611213        71.0547 
 165   0.0000       2.617865        71.2357 
 166   0.0000       2.623792        71.3970 
 167   0.0000       2.632748        71.6407 
 168   0.0000       2.660772        72.4033 
 169   0.0000       2.716546        73.9210 
 170   0.0000       2.750188        74.8364 
 171   0.0000       2.755874        74.9911 
 172   0.0000       2.792846        75.9972 
 173   0.0000       2.809826        76.4593 
 174   0.0000       2.832996        77.0898 
 175   0.0000       2.856798        77.7374 
 176   0.0000       2.874385        78.2160 
 177   0.0000       2.894897        78.7742 
 178   0.0000       2.929410        79.7133 
 179   0.0000       2.947565        80.2073 
 180   0.0000       2.968438        80.7753 
 181   0.0000       2.995672        81.5164 
 182   0.0000       3.024267        82.2945 
 183   0.0000       3.073545        83.6354 
 184   0.0000       3.098953        84.3268 
 185   0.0000       3.118315        84.8537 
 186   0.0000       3.141568        85.4864 
 187   0.0000       3.145575        85.5955 
 188   0.0000       3.165435        86.1359 
 189   0.0000       3.200171        87.0811 
 190   0.0000       3.247529        88.3698 
 191   0.0000       3.255193        88.5783 
 192   0.0000       3.281361        89.2904 
 193   0.0000       3.289736        89.5183 
 194   0.0000       3.329066        90.5885 
 195   0.0000       3.344396        91.0056 
 196   0.0000       3.369687        91.6938 
 197   0.0000       3.374211        91.8170 
 198   0.0000       3.380278        91.9821 
 199   0.0000       3.398225        92.4704 
 200   0.0000       3.421368        93.1002 
 201   0.0000       3.435693        93.4900 
 202   0.0000       3.460130        94.1549 
 203   0.0000       3.477925        94.6391 
 204   0.0000       3.501029        95.2678 
 205   0.0000       3.513602        95.6100 
 206   0.0000       3.515980        95.6747 
 207   0.0000       3.538921        96.2989 
 208   0.0000       3.577969        97.3615 
 209   0.0000       3.594622        97.8146 
 210   0.0000       3.606537        98.1389 
 211   0.0000       3.636875        98.9644 
 212   0.0000       3.639350        99.0317 
 213   0.0000       3.642742        99.1240 
 214   0.0000       3.687377       100.3386 
 215   0.0000       3.724823       101.3576 
 216   0.0000       3.735932       101.6599 
 217   0.0000       3.761520       102.3562 
 218   0.0000       3.767864       102.5288 
 219   0.0000       3.786201       103.0278 
 220   0.0000       3.800058       103.4048 
 221   0.0000       3.808304       103.6292 
 222   0.0000       3.870104       105.3109 
 223   0.0000       3.934614       107.0663 
 224   0.0000       3.947998       107.4305 
 225   0.0000       3.963649       107.8564 
 226   0.0000       4.039057       109.9083 
 227   0.0000       4.047882       110.1485 
 228   0.0000       4.085003       111.1586 
 229   0.0000       4.118735       112.0765 
 230   0.0000       4.134567       112.5073 
 231   0.0000       4.150492       112.9406 
 232   0.0000       4.198038       114.2344 
 233   0.0000       4.241998       115.4306 
 234   0.0000       4.268402       116.1491 
 235   0.0000       4.323399       117.6457 
 236   0.0000       4.361081       118.6711 
 237   0.0000       4.372409       118.9793 
 238   0.0000       4.424882       120.4071 
 239   0.0000       4.486299       122.0784 
 240   0.0000       4.492495       122.2470 
 241   0.0000       4.515891       122.8836 
 242   0.0000       4.551241       123.8456 
 243   0.0000       4.587612       124.8353 
 244   0.0000       4.598071       125.1199 
 245   0.0000       4.658081       126.7528 
 246   0.0000       4.701108       127.9237 
 247   0.0000       4.755333       129.3992 
 248   0.0000       4.770053       129.7998 
 249   0.0000       4.793743       130.4444 
 250   0.0000       4.799179       130.5923 
 251   0.0000       4.849357       131.9577 
 252   0.0000       5.013194       136.4159 
 253   0.0000       5.067231       137.8864 
 254   0.0000       5.083226       138.3216 
 255   0.0000       5.122104       139.3795 
 256   0.0000       5.182626       141.0264 
 257   0.0000       5.187625       141.1624 
 258   0.0000       5.207212       141.6954 
 259   0.0000       5.247711       142.7975 
 260   0.0000       5.286088       143.8418 
 261   0.0000       5.306379       144.3939 
 262   0.0000       5.320397       144.7754 
 263   0.0000       5.324527       144.8877 
 264   0.0000       5.383878       146.5028 
 265   0.0000       5.397424       146.8714 
 266   0.0000       5.450173       148.3067 
 267   0.0000       5.456567       148.4807 
 268   0.0000       5.514527       150.0579 
 269   0.0000       5.519695       150.1985 
 270   0.0000       5.570365       151.5773 
 271   0.0000       5.591167       152.1434 
 272   0.0000       5.609862       152.6521 
 273   0.0000       5.623694       153.0285 
 274   0.0000       5.626991       153.1182 
 275   0.0000       5.635991       153.3631 
 276   0.0000       5.668879       154.2580 
 277   0.0000       5.673728       154.3900 
 278   0.0000       5.687666       154.7693 
 279   0.0000       5.725625       155.8022 
 280   0.0000       5.847931       159.1303 
 281   0.0000       5.876186       159.8992 
 282   0.0000       5.927267       161.2891 
 283   0.0000       5.993195       163.0831 
 284   0.0000       5.998196       163.2192 
 285   0.0000       6.083779       165.5480 
 286   0.0000       6.093060       165.8006 
 287   0.0000       6.142231       167.1386 
 288   0.0000       6.162752       167.6970 
 289   0.0000       6.183696       168.2669 
 290   0.0000       6.261044       170.3717 
 291   0.0000       6.345385       172.6667 
 292   0.0000       6.400253       174.1597 
 293   0.0000       6.438015       175.1873 
 294   0.0000       6.577080       178.9715 
 295   0.0000       6.601181       179.6273 
 296   0.0000       6.859262       186.6500 
 297   0.0000       6.878571       187.1754 
 298   0.0000       6.880602       187.2307 
 299   0.0000       7.001559       190.5221 
 300   0.0000       7.099262       193.1807 
 301   0.0000       7.306147       198.8104 
 302   0.0000       7.378921       200.7906 
 303   0.0000       7.502108       204.1427 
 304   0.0000       7.609588       207.0674 
 305   0.0000       7.619424       207.3351 
 306   0.0000      23.502414       639.5332 
 307   0.0000      23.792751       647.4337 
 308   0.0000      24.087601       655.4569 
 309   0.0000      24.301771       661.2848 
 310   0.0000      33.486913       911.2252 
 311   0.0000      33.561887       913.2654 
 312   0.0000      33.867845       921.5909 
 313   0.0000      33.977248       924.5679 
 314   0.0000      45.335108      1233.6310 

                    ********************************
                    * MULLIKEN POPULATION ANALYSIS *
                    ********************************

-----------------------
MULLIKEN ATOMIC CHARGES
-----------------------
   0 C :   -0.233628
   1 N :    0.206943
   2 N :   -0.262200
   3 C :   -0.125617
   4 C :    0.279840
   5 N :   -0.387116
   6 C :    0.389682
   7 O :   -0.488718
   8 N :   -0.343309
   9 H :    0.128804
  10 H :    0.154448
  11 H :    0.131958
  12 H :    0.183647
  13 H :    0.265342
  14 H :    0.099923
Sum of atomic charges:   -0.0000000

--------------------------------
MULLIKEN REDUCED ORBITAL CHARGES
--------------------------------
  0 C s       :     3.257510  s :     3.257510
      pz      :     1.092836  p :     2.875950
      px      :     1.065242
      py      :     0.717873
      dz2     :     0.014717  d :     0.092983
      dxz     :     0.013284
      dyz     :     0.017725
      dx2y2   :     0.018078
      dxy     :     0.029180
      f0      :     0.001027  f :     0.007184
      f+1     :     0.000249
      f-1     :     0.001143
      f+2     :     0.001279
      f-2     :     0.000092
      f+3     :     0.001800
      f-3     :     0.001594
  1 N s       :     3.345346  s :     3.345346
      pz      :     0.869209  p :     3.283220
      px      :     1.440386
      py      :     0.973625
      dz2     :     0.041261  d :     0.154595
      dxz     :     0.033077
      dyz     :     0.048621
      dx2y2   :     0.015551
      dxy     :     0.016084
      f0      :     0.001912  f :     0.009896
      f+1     :     0.000898
      f-1     :     0.002012
      f+2     :     0.001994
      f-2     :     0.001345
      f+3     :     0.000743
      f-3     :     0.000992
  2 N s       :     3.675700  s :     3.675700
      pz      :     1.223601  p :     3.484505
      px      :     1.121705
      py      :     1.139200
      dz2     :     0.022199  d :     0.095317
      dxz     :     0.016601
      dyz     :     0.023246
      dx2y2   :     0.011107
      dxy     :     0.022164
      f0      :     0.001020  f :     0.006678
      f+1     :     0.000895
      f-1     :     0.001596
      f+2     :     0.000840
      f-2     :     0.000907
      f+3     :     0.000858
      f-3     :     0.000561
  3 C s       :     3.173450  s :     3.173450
      pz      :     0.937796  p :     2.833684
      px      :     1.041656
      py      :     0.854233
      dz2     :     0.025792  d :     0.106066
      dxz     :     0.015031
      dyz     :     0.034273
      dx2y2   :     0.010459
      dxy     :     0.020510
      f0      :     0.002098  f :     0.012417
      f+1     :     0.001503
      f-1     :     0.002537
      f+2     :     0.001968
      f-2     :     0.000230
      f+3     :     0.002529
      f-3     :     0.001550
  4 C s       :     2.945550  s :     2.945550
      pz      :     0.897857  p :     2.592435
      px      :     0.939931
      py      :     0.754646
      dz2     :     0.041415  d :     0.163211
      dxz     :     0.032503
      dyz     :     0.036767
      dx2y2   :     0.008206
      dxy     :     0.044320
      f0      :     0.002232  f :     0.018965
      f+1     :     0.001664
      f-1     :     0.004931
      f+2     :     0.002618
      f-2     :     0.002593
      f+3     :     0.003091
      f-3     :     0.001834
  5 N s       :     3.431101  s :     3.431101
      pz      :     1.129443  p :     3.888535
      px      :     1.679140
      py      :     1.079952
      dz2     :     0.017108  d :     0.062492
      dxz     :     0.002816
      dyz     :     0.019525
      dx2y2   :     0.011820
      dxy     :     0.011222
      f0      :     0.000885  f :     0.004989
      f+1     :     0.000092
      f-1     :     0.000792
      f+2     :     0.001077
      f-2     :     0.000282
      f+3     :     0.000877
      f-3     :     0.000983
  6 C s       :     3.080659  s :     3.080659
      pz      :     0.828259  p :     2.274169
      px      :     0.661159
      py      :     0.784751
      dz2     :     0.047358  d :     0.234884
      dxz     :     0.051993
      dyz     :     0.087200
      dx2y2   :     0.012887
      dxy     :     0.035446
      f0      :     0.004123  f :     0.020607
      f+1     :     0.004188
      f-1     :     0.005366
      f+2     :     0.002235
      f-2     :     0.001188
      f+3     :     0.002469
      f-3     :     0.001037
  7 O s       :     3.851975  s :     3.851975
      pz      :     1.363677  p :     4.598513
      px      :     1.449700
      py      :     1.785136
      dz2     :     0.012689  d :     0.036032
      dxz     :     0.011743
      dyz     :     0.009377
      dx2y2   :     0.000947
      dxy     :     0.001276
      f0      :     0.000684  f :     0.002198
      f+1     :     0.000552
      f-1     :     0.000649
      f+2     :     0.000132
      f-2     :     0.000175
      f+3     :     0.000001
      f-3     :     0.000004
  8 N s       :     3.668485  s :     3.668485
      pz      :     1.323263  p :     3.578340
      px      :     1.236701
      py      :     1.018375
      dz2     :     0.016305  d :     0.089879
      dxz     :     0.014169
      dyz     :     0.029112
      dx2y2   :     0.009806
      dxy     :     0.020486
      f0      :     0.000688  f :     0.006605
      f+1     :     0.000496
      f-1     :     0.001527
      f+2     :     0.001196
      f-2     :     0.001232
      f+3     :     0.000829
      f-3     :     0.000637
  9 H s       :     0.849563  s :     0.849563
      pz      :     0.005357  p :     0.021633
      px      :     0.012269
      py      :     0.004006
 10 H s       :     0.823475  s :     0.823475
      pz      :     0.013738  p :     0.022077
      px      :     0.003702
      py      :     0.004638
 11 H s       :     0.846380  s :     0.846380
      pz      :     0.007561  p :     0.021662
      px      :     0.010210
      py      :     0.003891
 12 H s       :     0.792341  s :     0.792341
      pz      :     0.008991  p :     0.024012
      px      :     0.004358
      py      :     0.010663
 13 H s       :     0.696251  s :     0.696251
      pz      :     0.021234  p :     0.038407
      px      :     0.011701
      py      :     0.005472
 14 H s       :     0.879437  s :     0.879437
      pz      :     0.010334  p :     0.020640
      px      :     0.001864
      py      :     0.008441


                     *******************************
                     * LOEWDIN POPULATION ANALYSIS *
                     *******************************

----------------------
LOEWDIN ATOMIC CHARGES
----------------------
   0 C :   -0.241809
   1 N :    0.082920
   2 N :    0.054075
   3 C :   -0.234278
   4 C :   -0.306479
   5 N :    0.121919
   6 C :   -0.325376
   7 O :    0.008987
   8 N :    0.029981
   9 H :    0.114423
  10 H :    0.124003
  11 H :    0.115478
  12 H :    0.139868
  13 H :    0.199466
  14 H :    0.116823

-------------------------------
LOEWDIN REDUCED ORBITAL CHARGES
-------------------------------
  0 C s       :     2.836463  s :     2.836463
      pz      :     1.091083  p :     3.033299
      px      :     1.084450
      py      :     0.857767
      dz2     :     0.046652  d :     0.331280
      dxz     :     0.040667
      dyz     :     0.061968
      dx2y2   :     0.080417
      dxy     :     0.101577
      f0      :     0.004523  f :     0.040766
      f+1     :     0.001228
      f-1     :     0.006998
      f+2     :     0.005388
      f-2     :     0.002072
      f+3     :     0.012096
      f-3     :     0.008461
  1 N s       :     2.894661  s :     2.894661
      pz      :     1.083093  p :     3.511619
      px      :     1.301799
      py      :     1.126727
      dz2     :     0.148212  d :     0.470749
      dxz     :     0.086730
      dyz     :     0.135475
      dx2y2   :     0.053913
      dxy     :     0.046419
      f0      :     0.011119  f :     0.040051
      f+1     :     0.002052
      f-1     :     0.006732
      f+2     :     0.008155
      f-2     :     0.007137
      f+3     :     0.002806
      f-3     :     0.002051
  2 N s       :     3.113610  s :     3.113610
      pz      :     1.279104  p :     3.524858
      px      :     1.045295
      py      :     1.200459
      dz2     :     0.058500  d :     0.276837
      dxz     :     0.032885
      dyz     :     0.087178
      dx2y2   :     0.036101
      dxy     :     0.062173
      f0      :     0.006593  f :     0.030621
      f+1     :     0.003987
      f-1     :     0.008333
      f+2     :     0.003654
      f-2     :     0.004393
      f+3     :     0.001870
      f-3     :     0.001791
  3 C s       :     2.782435  s :     2.782435
      pz      :     1.008691  p :     2.928392
      px      :     0.957795
      py      :     0.961905
      dz2     :     0.099982  d :     0.454956
      dxz     :     0.050496
      dyz     :     0.178660
      dx2y2   :     0.067927
      dxy     :     0.057892
      f0      :     0.013934  f :     0.068495
      f+1     :     0.008060
      f-1     :     0.016227
      f+2     :     0.010145
      f-2     :     0.001430
      f+3     :     0.009895
      f-3     :     0.008805
  4 C s       :     2.712308  s :     2.712308
      pz      :     1.016351  p :     2.773661
      px      :     0.870888
      py      :     0.886422
      dz2     :     0.146202  d :     0.715798
      dxz     :     0.109743
      dyz     :     0.231908
      dx2y2   :     0.093900
      dxy     :     0.134044
      f0      :     0.011346  f :     0.104712
      f+1     :     0.007416
      f-1     :     0.033416
      f+2     :     0.013503
      f-2     :     0.016799
      f+3     :     0.012229
      f-3     :     0.010004
  5 N s       :     2.913485  s :     2.913485
      pz      :     1.117026  p :     3.737106
      px      :     1.446487
      py      :     1.173592
      dz2     :     0.061303  d :     0.213430
      dxz     :     0.011004
      dyz     :     0.065361
      dx2y2   :     0.039922
      dxy     :     0.035841
      f0      :     0.001833  f :     0.014060
      f+1     :     0.000153
      f-1     :     0.003605
      f+2     :     0.002512
      f-2     :     0.001857
      f+3     :     0.001647
      f-3     :     0.002453
  6 C s       :     2.800275  s :     2.800275
      pz      :     0.999265  p :     2.604588
      px      :     0.677473
      py      :     0.927850
      dz2     :     0.194755  d :     0.800587
      dxz     :     0.124044
      dyz     :     0.304166
      dx2y2   :     0.069212
      dxy     :     0.108409
      f0      :     0.028436  f :     0.119927
      f+1     :     0.021253
      f-1     :     0.032051
      f+2     :     0.013748
      f-2     :     0.005958
      f+3     :     0.011776
      f-3     :     0.006706
  7 O s       :     3.410985  s :     3.410985
      pz      :     1.513300  p :     4.506540
      px      :     1.355538
      py      :     1.637702
      dz2     :     0.030915  d :     0.067792
      dxz     :     0.012497
      dyz     :     0.021060
      dx2y2   :     0.001887
      dxy     :     0.001432
      f0      :     0.002232  f :     0.005696
      f+1     :     0.000788
      f-1     :     0.001936
      f+2     :     0.000419
      f-2     :     0.000291
      f+3     :     0.000011
      f-3     :     0.000019
  8 N s       :     3.102910  s :     3.102910
      pz      :     1.338529  p :     3.576880
      px      :     1.137732
      py      :     1.100619
      dz2     :     0.044742  d :     0.260314
      dxz     :     0.024507
      dyz     :     0.092977
      dx2y2   :     0.037546
      dxy     :     0.060542
      f0      :     0.004318  f :     0.029915
      f+1     :     0.001977
      f-1     :     0.009472
      f+2     :     0.004346
      f-2     :     0.006499
      f+3     :     0.001401
      f-3     :     0.001902
  9 H s       :     0.824933  s :     0.824933
      pz      :     0.016659  p :     0.060644
      px      :     0.032860
      py      :     0.011125
 10 H s       :     0.814489  s :     0.814489
      pz      :     0.036565  p :     0.061507
      px      :     0.012881
      py      :     0.012061
 11 H s       :     0.823784  s :     0.823784
      pz      :     0.021805  p :     0.060738
      px      :     0.028110
      py      :     0.010823
 12 H s       :     0.794764  s :     0.794764
      pz      :     0.024280  p :     0.065368
      px      :     0.014044
      py      :     0.027044
 13 H s       :     0.693457  s :     0.693457
      pz      :     0.056962  p :     0.107077
      px      :     0.034167
      py      :     0.015948
 14 H s       :     0.829364  s :     0.829364
      pz      :     0.026444  p :     0.053814
      px      :     0.006431
      py      :     0.020938


                      *****************************
                      * MAYER POPULATION ANALYSIS *
                      *****************************

  NA   - Mulliken gross atomic population
  ZA   - Total nuclear charge
  QA   - Mulliken gross atomic charge
  VA   - Mayer's total valence
  BVA  - Mayer's bonded valence
  FA   - Mayer's free valence

  ATOM       NA         ZA         QA         VA         BVA        FA
  0 C      6.2336     6.0000    -0.2336     3.8633     3.8633    -0.0000
  1 N      6.7931     7.0000     0.2069     3.2468     3.2468     0.0000
  2 N      7.2622     7.0000    -0.2622     2.8634     2.8634     0.0000
  3 C      6.1256     6.0000    -0.1256     4.0653     4.0653     0.0000
  4 C      5.7202     6.0000     0.2798     4.0907     4.0907    -0.0000
  5 N      7.3871     7.0000    -0.3871     3.0019     3.0019    -0.0000
  6 C      5.6103     6.0000     0.3897     4.0755     4.0755    -0.0000
  7 O      8.4887     8.0000    -0.4887     1.9657     1.9657    -0.0000
  8 N      7.3433     7.0000    -0.3433     2.8494     2.8494    -0.0000
  9 H      0.8712     1.0000     0.1288     0.9626     0.9626     0.0000
 10 H      0.8456     1.0000     0.1544     0.9627     0.9627    -0.0000
 11 H      0.8680     1.0000     0.1320     0.9627     0.9627    -0.0000
 12 H      0.8164     1.0000     0.1836     0.9871     0.9871     0.0000
 13 H      0.7347     1.0000     0.2653     0.9376     0.9376    -0.0000
 14 H      0.9001     1.0000     0.0999     0.9717     0.9717     0.0000

  Mayer bond orders larger than 0.1
B(  0-C ,  1-N ) :   0.8961 B(  0-C ,  9-H ) :   0.9777 B(  0-C , 10-H ) :   0.9756 
B(  0-C , 11-H ) :   0.9784 B(  1-N ,  2-N ) :   1.1981 B(  1-N ,  8-N ) :   1.1325 
B(  2-N ,  3-C ) :   1.5450 B(  3-C ,  4-C ) :   1.4522 B(  3-C , 12-H ) :   0.9513 
B(  4-C ,  5-N ) :   0.9865 B(  4-C ,  8-N ) :   1.5665 B(  5-N ,  6-C ) :   1.1466 
B(  5-N , 13-H ) :   0.9029 B(  6-C ,  7-O ) :   1.9129 B(  6-C , 14-H ) :   0.9847 


-------
TIMINGS
-------

Total SCF time: 0 days 0 hours 2 min 14 sec 

Total time                  ....     134.476 sec
Sum of individual times     ....     138.101 sec  (102.7%)

Fock matrix formation       ....     132.942 sec  ( 98.9%)
Diagonalization             ....       0.658 sec  (  0.5%)
Density matrix formation    ....       0.047 sec  (  0.0%)
Population analysis         ....       0.147 sec  (  0.1%)
Initial guess               ....       2.524 sec  (  1.9%)
Orbital Transformation      ....       0.000 sec  (  0.0%)
Orbital Orthonormalization  ....       0.000 sec  (  0.0%)
DIIS solution               ....       0.186 sec  (  0.1%)
SOSCF solution              ....       0.342 sec  (  0.3%)

   <<< Auxbasis replaced with dsgdb9nsd_127605.AUXC.tmp (Dim=774) >>> 


------------------------------------------------------------------------------
                              ORCA MP2 CALCULATION
------------------------------------------------------------------------------

Freezing NCore=18 chemical core electrons

   <<< Use J-auxbasis for calculation of Separable RI-J derivative contributions dsgdb9nsd_127605.AUXJ.tmp (Dim=793) >>> 


---------------------
RI-MP2 ENERGY+DENSITY
---------------------
Dimension of the basis                    ...  315
Memory devoted to MP2                     ... 2000 MB   
Data format for buffers                   ... DOUBLE
Compression type for matrix containers    ... UNCOMPRESSED
Overall scaling of the MP2 energy         ...   1.000e+00 Eh
Calculating two index integrals           ... done (    0.017 sec)
Cholesky decomposition of V**-1           ... done (    0.108 sec)

-----------------
RI-TRANSFORMATION (AUX index driven)
-----------------

Dimension of the orbital-basis         ... 315
Dimension of the aux-basis             ... 774
Transformation of internal MOs         ...    0-  32
Transformation of internal/external MOs...    0-  32 to   33- 314
Number Format for Storage              ... Double (8 Byte)
Integral mode                          ... Direct

First Phase: integral generation and transformation of MO indices
  Aux angular momentum 0               ... done (    0.643 sec)
  Aux angular momentum 1               ... done (    0.949 sec)
  Aux angular momentum 2               ... done (    0.997 sec)
  Aux angular momentum 3               ... done (    0.794 sec)
  Aux angular momentum 4               ... done (    0.378 sec)
Closing buffer VIJ ( 0.00 GB; CompressionRatio= 1.94)
Closing buffer VIA ( 0.05 GB; CompressionRatio= 1.00)
  Phase 1 completed in     4.217 sec
Second Phase: sorting and transformation of aux index

IJ-Transformation
Memory available                       ... 1988 MB 
Max. # MO pairs treated in a batch     ... 33    
# of internal orbitals                 ... 33
# batches for internal orbitals        ... 1
Closing buffer IJV ( 0.00 GB; CompressionRatio= 1.00)
(ij|v) transformation done in     0.179 sec

IA-Transformation
Memory available                       ... 1988 MB 
Max. # MO pairs treated in a batch     ... 33    
# of internal orbitals                 ... 33
# batches for internal orbitals        ... 1
Closing buffer IAV ( 0.05 GB; CompressionRatio= 1.00)
(ia|v) transformation done in     1.277 sec

  Phase 2 completed in     1.474 sec
RI-Integral transformation completed in     5.692 sec
Opening buffers                              ... done
Frozen core precalculation                   ... done

Starting loop over batches of integrals:

Operator 0  - window                       ... (  9- 32)x( 33-314)
Operator 0  - Memory available             ...  2000 MB
Operator 0  - Memory needed per MO         ...   3.3 MB
Operator 0  - Number of orbitals per batch ... 24
Operator 0  - Number of batches            ... 1

OPERATOR  0   PASS   0:  MOs     9 ...   32
  Reading integrals       ... ok
  Internal MO  11
  Internal MO  14
  Internal MO  17
  Internal MO  20
  Internal MO  23
  Internal MO  26
  Internal MO  29
  Internal MO  32
Time spent in pair loops =    30.498 sec
Deleting buffer (Ka|jb)[aa] ...done

-----------------------------------------------
 RI-MP2 CORRELATION ENERGY:     -1.664448145 Eh
-----------------------------------------------


---------------------
MP2 DENSITY FORMATION
---------------------

Completing the external part of the density      ... done
Storing the unrelaxed density                    ... done

Calculating G(D)                                 ... done
Completing the Lagrangian                        ... done
Solving the Z-vector equations                   ... 

------------------------------------------------------------------------------
                           ORCA CP-SCF CALCULATION
------------------------------------------------------------------------------

Input orbitals are from        ... dsgdb9nsd_127605.gbw
Input Perturbation             ... dsgdb9nsd_127605.pin.tmp
Wavefunction output            ... dsgdb9nsd_127605.pout.tmp
Perturbation mode              ... Real perturbation
Solver                         ... POPLE
Max. number of iterations      ... 128
Convergence tolerance          ... 1.000e-08
Integral handling              ... Direct
Number of perturbations        ... 1
Number of operators            ... 1
Orbital ranges used for CP-SCF:
 Operator 0:  Orbitals   0... 32  to  33...314
Variables per vector in CP-SCF ... 9306
Number of vectors sought       ... 1
     CP-SCF ITERATION   0: 
     CP-SCF ITERATION   1:      0.003976435
     CP-SCF ITERATION   2:      0.001185267
     CP-SCF ITERATION   3:      0.000162923
     CP-SCF ITERATION   4:      0.000022401
     CP-SCF ITERATION   5:      0.000005210
     CP-SCF ITERATION   6:      0.000000530
     CP-SCF ITERATION   7:      0.000000073
     CP-SCF ITERATION   8:      0.000000008
done
Finalizing the relaxed density                   ... done
Transforming P to the AO basis                   ... done
Storing the relaxed density                      ... done

                *********************************************
                * UNRELAXED MP2 DENSITY POPULATION ANALYSIS *
                *********************************************

------------------------------------------------------------------------------
                           ORCA POPULATION ANALYSIS
------------------------------------------------------------------------------
Input electron density              ... dsgdb9nsd_127605.pmp2ur
BaseName (.gbw .S,...)              ... dsgdb9nsd_127605

                    ********************************
                    * MULLIKEN POPULATION ANALYSIS *
                    ********************************

-----------------------
MULLIKEN ATOMIC CHARGES
-----------------------
   0 C :   -0.243219
   1 N :    0.209080
   2 N :   -0.257196
   3 C :   -0.137647
   4 C :    0.269037
   5 N :   -0.377896
   6 C :    0.358306
   7 O :   -0.464723
   8 N :   -0.333043
   9 H :    0.131651
  10 H :    0.156865
  11 H :    0.134750
  12 H :    0.186405
  13 H :    0.266170
  14 H :    0.101459
Sum of atomic charges:   -0.0000000

--------------------------------
MULLIKEN REDUCED ORBITAL CHARGES
--------------------------------
  0 C s       :     3.254611  s :     3.254611
      pz      :     1.085895  p :     2.862895
      px      :     1.059230
      py      :     0.717770
      dz2     :     0.019346  d :     0.115026
      dxz     :     0.018499
      dyz     :     0.022380
      dx2y2   :     0.021314
      dxy     :     0.033488
      f0      :     0.001539  f :     0.010686
      f+1     :     0.000819
      f-1     :     0.001583
      f+2     :     0.001786
      f-2     :     0.000615
      f+3     :     0.002317
      f-3     :     0.002028
  1 N s       :     3.342607  s :     3.342607
      pz      :     0.864908  p :     3.253094
      px      :     1.423211
      py      :     0.964976
      dz2     :     0.046321  d :     0.181854
      dxz     :     0.038674
      dyz     :     0.052334
      dx2y2   :     0.021885
      dxy     :     0.022639
      f0      :     0.002461  f :     0.013364
      f+1     :     0.001390
      f-1     :     0.002555
      f+2     :     0.002464
      f-2     :     0.001838
      f+3     :     0.001228
      f-3     :     0.001427
  2 N s       :     3.666462  s :     3.666462
      pz      :     1.212652  p :     3.461814
      px      :     1.119218
      py      :     1.129944
      dz2     :     0.026506  d :     0.119144
      dxz     :     0.021492
      dyz     :     0.027649
      dx2y2   :     0.016253
      dxy     :     0.027245
      f0      :     0.001510  f :     0.009776
      f+1     :     0.001316
      f-1     :     0.002071
      f+2     :     0.001293
      f-2     :     0.001357
      f+3     :     0.001257
      f-3     :     0.000972
  3 C s       :     3.175205  s :     3.175205
      pz      :     0.932503  p :     2.817058
      px      :     1.032060
      py      :     0.852494
      dz2     :     0.029412  d :     0.129324
      dxz     :     0.020650
      dyz     :     0.039100
      dx2y2   :     0.014460
      dxy     :     0.025702
      f0      :     0.002621  f :     0.016059
      f+1     :     0.002007
      f-1     :     0.003261
      f+2     :     0.002479
      f-2     :     0.000858
      f+3     :     0.002917
      f-3     :     0.001918
  4 C s       :     2.946696  s :     2.946696
      pz      :     0.890865  p :     2.580876
      px      :     0.936008
      py      :     0.754004
      dz2     :     0.043880  d :     0.180647
      dxz     :     0.037377
      dyz     :     0.040075
      dx2y2   :     0.011233
      dxy     :     0.048082
      f0      :     0.002789  f :     0.022743
      f+1     :     0.002186
      f-1     :     0.005804
      f+2     :     0.003053
      f-2     :     0.003167
      f+3     :     0.003503
      f-3     :     0.002240
  5 N s       :     3.426442  s :     3.426442
      pz      :     1.120755  p :     3.847657
      px      :     1.657460
      py      :     1.069442
      dz2     :     0.023436  d :     0.095433
      dxz     :     0.009562
      dyz     :     0.025192
      dx2y2   :     0.018673
      dxy     :     0.018570
      f0      :     0.001350  f :     0.008364
      f+1     :     0.000543
      f-1     :     0.001363
      f+2     :     0.001526
      f-2     :     0.000794
      f+3     :     0.001352
      f-3     :     0.001435
  6 C s       :     3.080724  s :     3.080724
      pz      :     0.826408  p :     2.288952
      px      :     0.676481
      py      :     0.786064
      dz2     :     0.050273  d :     0.248375
      dxz     :     0.054140
      dyz     :     0.089817
      dx2y2   :     0.015733
      dxy     :     0.038412
      f0      :     0.004626  f :     0.023643
      f+1     :     0.004423
      f-1     :     0.005977
      f+2     :     0.002739
      f-2     :     0.001774
      f+3     :     0.002760
      f-3     :     0.001345
  7 O s       :     3.846265  s :     3.846265
      pz      :     1.351890  p :     4.551113
      px      :     1.431716
      py      :     1.767506
      dz2     :     0.017581  d :     0.062481
      dxz     :     0.016760
      dyz     :     0.014886
      dx2y2   :     0.006420
      dxy     :     0.006834
      f0      :     0.001095  f :     0.004865
      f+1     :     0.000950
      f-1     :     0.001066
      f+2     :     0.000515
      f-2     :     0.000557
      f+3     :     0.000340
      f-3     :     0.000342
  8 N s       :     3.659490  s :     3.659490
      pz      :     1.309883  p :     3.548660
      px      :     1.226686
      py      :     1.012092
      dz2     :     0.021434  d :     0.115138
      dxz     :     0.019447
      dyz     :     0.033074
      dx2y2   :     0.015248
      dxy     :     0.025936
      f0      :     0.001183  f :     0.009754
      f+1     :     0.000943
      f-1     :     0.002030
      f+2     :     0.001631
      f-2     :     0.001692
      f+3     :     0.001231
      f-3     :     0.001044
  9 H s       :     0.843689  s :     0.843689
      pz      :     0.006405  p :     0.024660
      px      :     0.013131
      py      :     0.005124
 10 H s       :     0.818127  s :     0.818127
      pz      :     0.014523  p :     0.025008
      px      :     0.004766
      py      :     0.005719
 11 H s       :     0.840569  s :     0.840569
      pz      :     0.008546  p :     0.024681
      px      :     0.011125
      py      :     0.005010
 12 H s       :     0.786791  s :     0.786791
      pz      :     0.009874  p :     0.026804
      px      :     0.005425
      py      :     0.011506
 13 H s       :     0.693687  s :     0.693687
      pz      :     0.021526  p :     0.040143
      px      :     0.012420
      py      :     0.006196
 14 H s       :     0.874773  s :     0.874773
      pz      :     0.011263  p :     0.023768
      px      :     0.003151
      py      :     0.009354


                     *******************************
                     * LOEWDIN POPULATION ANALYSIS *
                     *******************************

----------------------
LOEWDIN ATOMIC CHARGES
----------------------
   0 C :   -0.248344
   1 N :    0.086644
   2 N :    0.053547
   3 C :   -0.239121
   4 C :   -0.309654
   5 N :    0.122883
   6 C :   -0.342547
   7 O :    0.025153
   8 N :    0.032980
   9 H :    0.116310
  10 H :    0.125785
  11 H :    0.117354
  12 H :    0.141808
  13 H :    0.199796
  14 H :    0.117405

-------------------------------
LOEWDIN REDUCED ORBITAL CHARGES
-------------------------------
  0 C s       :     2.835032  s :     2.835032
      pz      :     1.083260  p :     3.013546
      px      :     1.076958
      py      :     0.853328
      dz2     :     0.051977  d :     0.353720
      dxz     :     0.046136
      dyz     :     0.066391
      dx2y2   :     0.084848
      dxy     :     0.104368
      f0      :     0.005270  f :     0.046045
      f+1     :     0.001885
      f-1     :     0.007859
      f+2     :     0.006177
      f-2     :     0.002769
      f+3     :     0.012647
      f-3     :     0.009439
  1 N s       :     2.894052  s :     2.894052
      pz      :     1.074457  p :     3.477954
      px      :     1.287396
      py      :     1.116101
      dz2     :     0.152585  d :     0.495911
      dxz     :     0.090035
      dyz     :     0.140153
      dx2y2   :     0.060796
      dxy     :     0.052341
      f0      :     0.011790  f :     0.045439
      f+1     :     0.002900
      f-1     :     0.008253
      f+2     :     0.008843
      f-2     :     0.007548
      f+3     :     0.003408
      f-3     :     0.002696
  2 N s       :     3.109012  s :     3.109012
      pz      :     1.266297  p :     3.498197
      px      :     1.042906
      py      :     1.188994
      dz2     :     0.064649  d :     0.304224
      dxz     :     0.038307
      dyz     :     0.092527
      dx2y2   :     0.042474
      dxy     :     0.066267
      f0      :     0.007264  f :     0.035020
      f+1     :     0.004436
      f-1     :     0.009245
      f+2     :     0.004317
      f-2     :     0.004818
      f+3     :     0.002513
      f-3     :     0.002426
  3 C s       :     2.780858  s :     2.780858
      pz      :     0.999520  p :     2.902513
      px      :     0.948046
      py      :     0.954947
      dz2     :     0.105778  d :     0.480747
      dxz     :     0.056224
      dyz     :     0.181493
      dx2y2   :     0.074053
      dxy     :     0.063199
      f0      :     0.015176  f :     0.075003
      f+1     :     0.008833
      f-1     :     0.017432
      f+2     :     0.010994
      f-2     :     0.002190
      f+3     :     0.010687
      f-3     :     0.009691
  4 C s       :     2.711036  s :     2.711036
      pz      :     1.006856  p :     2.754234
      px      :     0.866718
      py      :     0.880660
      dz2     :     0.150324  d :     0.732480
      dxz     :     0.113374
      dyz     :     0.234306
      dx2y2   :     0.098909
      dxy     :     0.135567
      f0      :     0.013036  f :     0.111904
      f+1     :     0.008261
      f-1     :     0.034344
      f+2     :     0.014891
      f-2     :     0.017285
      f+3     :     0.013167
      f-3     :     0.010921
  5 N s       :     2.912562  s :     2.912562
      pz      :     1.107928  p :     3.698978
      px      :     1.429137
      py      :     1.161913
      dz2     :     0.067239  d :     0.246837
      dxz     :     0.017463
      dyz     :     0.071509
      dx2y2   :     0.047756
      dxy     :     0.042870
      f0      :     0.002575  f :     0.018740
      f+1     :     0.000631
      f-1     :     0.004363
      f+2     :     0.003275
      f-2     :     0.002442
      f+3     :     0.002345
      f-3     :     0.003109
  6 C s       :     2.799350  s :     2.799350
      pz      :     0.994531  p :     2.608263
      px      :     0.689369
      py      :     0.924363
      dz2     :     0.197875  d :     0.809169
      dxz     :     0.124463
      dyz     :     0.304209
      dx2y2   :     0.073082
      dxy     :     0.109540
      f0      :     0.029647  f :     0.125765
      f+1     :     0.021544
      f-1     :     0.033351
      f+2     :     0.014712
      f-2     :     0.006882
      f+3     :     0.012169
      f-3     :     0.007461
  7 O s       :     3.406641  s :     3.406641
      pz      :     1.499553  p :     4.461450
      px      :     1.339553
      py      :     1.622344
      dz2     :     0.037358  d :     0.097768
      dxz     :     0.018720
      dyz     :     0.027240
      dx2y2   :     0.007410
      dxy     :     0.007040
      f0      :     0.002866  f :     0.008988
      f+1     :     0.001342
      f-1     :     0.002530
      f+2     :     0.000828
      f-2     :     0.000710
      f+3     :     0.000352
      f-3     :     0.000360
  8 N s       :     3.098616  s :     3.098616
      pz      :     1.324092  p :     3.544420
      px      :     1.129296
      py      :     1.091032
      dz2     :     0.050718  d :     0.289596
      dxz     :     0.030678
      dyz     :     0.099215
      dx2y2   :     0.043988
      dxy     :     0.064997
      f0      :     0.004957  f :     0.034388
      f+1     :     0.002467
      f-1     :     0.010329
      f+2     :     0.005149
      f-2     :     0.006906
      f+3     :     0.002075
      f-3     :     0.002505
  9 H s       :     0.818041  s :     0.818041
      pz      :     0.018068  p :     0.065649
      px      :     0.034933
      py      :     0.012648
 10 H s       :     0.807806  s :     0.807806
      pz      :     0.038705  p :     0.066409
      px      :     0.014091
      py      :     0.013613
 11 H s       :     0.816918  s :     0.816918
      pz      :     0.023433  p :     0.065728
      px      :     0.029966
      py      :     0.012329
 12 H s       :     0.788092  s :     0.788092
      pz      :     0.026051  p :     0.070100
      px      :     0.015244
      py      :     0.028805
 13 H s       :     0.689498  s :     0.689498
      pz      :     0.058897  p :     0.110706
      px      :     0.034772
      py      :     0.017037
 14 H s       :     0.823381  s :     0.823381
      pz      :     0.028620  p :     0.059214
      px      :     0.007968
      py      :     0.022626


                      *****************************
                      * MAYER POPULATION ANALYSIS *
                      *****************************

  NA   - Mulliken gross atomic population
  ZA   - Total nuclear charge
  QA   - Mulliken gross atomic charge
  VA   - Mayer's total valence
  BVA  - Mayer's bonded valence
  FA   - Mayer's free valence

  ATOM       NA         ZA         QA         VA         BVA        FA
  0 C      6.2432     6.0000    -0.2432     3.9747     3.6896     0.2851
  1 N      6.7909     7.0000     0.2091     3.4199     2.9480     0.4719
  2 N      7.2572     7.0000    -0.2572     3.0623     2.5896     0.4728
  3 C      6.1376     6.0000    -0.1376     4.1758     3.7787     0.3971
  4 C      5.7310     6.0000     0.2690     4.1618     3.7853     0.3766
  5 N      7.3779     7.0000    -0.3779     3.2258     2.8249     0.4009
  6 C      5.6417     6.0000     0.3583     4.1528     3.8284     0.3244
  7 O      8.4647     8.0000    -0.4647     2.2718     1.8167     0.4551
  8 N      7.3330     7.0000    -0.3330     3.0608     2.5804     0.4804
  9 H      0.8683     1.0000     0.1317     0.9713     0.9227     0.0485
 10 H      0.8431     1.0000     0.1569     0.9707     0.9235     0.0472
 11 H      0.8652     1.0000     0.1348     0.9713     0.9230     0.0483
 12 H      0.8136     1.0000     0.1864     0.9934     0.9473     0.0461
 13 H      0.7338     1.0000     0.2662     0.9427     0.8954     0.0473
 14 H      0.8985     1.0000     0.1015     0.9815     0.9307     0.0508

  Mayer bond orders larger than 0.1
B(  0-C ,  1-N ) :   0.8422 B(  0-C ,  9-H ) :   0.9402 B(  0-C , 10-H ) :   0.9379 
B(  0-C , 11-H ) :   0.9409 B(  1-N ,  2-N ) :   1.0896 B(  1-N ,  8-N ) :   1.0355 
B(  2-N ,  3-C ) :   1.4212 B(  3-C ,  4-C ) :   1.3572 B(  3-C , 12-H ) :   0.9154 
B(  4-C ,  5-N ) :   0.9326 B(  4-C ,  8-N ) :   1.4407 B(  5-N ,  6-C ) :   1.0780 
B(  5-N , 13-H ) :   0.8646 B(  6-C ,  7-O ) :   1.7786 B(  6-C , 14-H ) :   0.9473 



                *******************************************
                * RELAXED MP2 DENSITY POPULATION ANALYSIS *
                *******************************************

------------------------------------------------------------------------------
                           ORCA POPULATION ANALYSIS
------------------------------------------------------------------------------
Input electron density              ... dsgdb9nsd_127605.pmp2re
BaseName (.gbw .S,...)              ... dsgdb9nsd_127605

                    ********************************
                    * MULLIKEN POPULATION ANALYSIS *
                    ********************************

-----------------------
MULLIKEN ATOMIC CHARGES
-----------------------
   0 C :   -0.318327
   1 N :    0.231613
   2 N :   -0.234860
   3 C :   -0.160984
   4 C :    0.187165
   5 N :   -0.308448
   6 C :    0.205834
   7 O :   -0.349202
   8 N :   -0.261435
   9 H :    0.154171
  10 H :    0.174841
  11 H :    0.156409
  12 H :    0.177922
  13 H :    0.254042
  14 H :    0.091258
Sum of atomic charges:   -0.0000000

--------------------------------
MULLIKEN REDUCED ORBITAL CHARGES
--------------------------------
  0 C s       :     3.272024  s :     3.272024
      pz      :     1.108282  p :     2.935663
      px      :     1.086001
      py      :     0.741380
      dz2     :     0.016033  d :     0.100561
      dxz     :     0.015366
      dyz     :     0.020844
      dx2y2   :     0.017968
      dxy     :     0.030349
      f0      :     0.001465  f :     0.010079
      f+1     :     0.000792
      f-1     :     0.001464
      f+2     :     0.001715
      f-2     :     0.000594
      f+3     :     0.002148
      f-3     :     0.001901
  1 N s       :     3.349236  s :     3.349236
      pz      :     0.882442  p :     3.221477
      px      :     1.372683
      py      :     0.966353
      dz2     :     0.048938  d :     0.184855
      dxz     :     0.038470
      dyz     :     0.049665
      dx2y2   :     0.022573
      dxy     :     0.025209
      f0      :     0.002441  f :     0.012819
      f+1     :     0.001337
      f-1     :     0.002266
      f+2     :     0.002375
      f-2     :     0.001822
      f+3     :     0.001249
      f-3     :     0.001329
  2 N s       :     3.639999  s :     3.639999
      pz      :     1.184672  p :     3.475016
      px      :     1.176557
      py      :     1.113787
      dz2     :     0.024878  d :     0.110501
      dxz     :     0.020005
      dyz     :     0.026197
      dx2y2   :     0.015478
      dxy     :     0.023943
      f0      :     0.001484  f :     0.009343
      f+1     :     0.001240
      f-1     :     0.001945
      f+2     :     0.001286
      f-2     :     0.001271
      f+3     :     0.001168
      f-3     :     0.000949
  3 C s       :     3.199387  s :     3.199387
      pz      :     0.937098  p :     2.820229
      px      :     1.011730
      py      :     0.871400
      dz2     :     0.026087  d :     0.125964
      dxz     :     0.021049
      dyz     :     0.039197
      dx2y2   :     0.014609
      dxy     :     0.025022
      f0      :     0.002370  f :     0.015404
      f+1     :     0.002023
      f-1     :     0.003126
      f+2     :     0.002407
      f-2     :     0.000863
      f+3     :     0.002807
      f-3     :     0.001807
  4 C s       :     2.982081  s :     2.982081
      pz      :     0.891310  p :     2.634256
      px      :     0.986793
      py      :     0.756154
      dz2     :     0.039833  d :     0.174799
      dxz     :     0.036647
      dyz     :     0.041737
      dx2y2   :     0.012617
      dxy     :     0.043965
      f0      :     0.002483  f :     0.021698
      f+1     :     0.002097
      f-1     :     0.005800
      f+2     :     0.002919
      f-2     :     0.002904
      f+3     :     0.003255
      f-3     :     0.002240
  5 N s       :     3.422173  s :     3.422173
      pz      :     1.112879  p :     3.787359
      px      :     1.597733
      py      :     1.076747
      dz2     :     0.021678  d :     0.090858
      dxz     :     0.010034
      dyz     :     0.021527
      dx2y2   :     0.017464
      dxy     :     0.020156
      f0      :     0.001238  f :     0.008057
      f+1     :     0.000536
      f-1     :     0.001326
      f+2     :     0.001395
      f-2     :     0.000838
      f+3     :     0.001377
      f-3     :     0.001347
  6 C s       :     3.104698  s :     3.104698
      pz      :     0.821425  p :     2.433740
      px      :     0.795533
      py      :     0.816781
      dz2     :     0.051478  d :     0.233752
      dxz     :     0.045664
      dyz     :     0.086207
      dx2y2   :     0.015647
      dxy     :     0.034757
      f0      :     0.004455  f :     0.021977
      f+1     :     0.003851
      f-1     :     0.005645
      f+2     :     0.002640
      f-2     :     0.001520
      f+3     :     0.002514
      f-3     :     0.001350
  7 O s       :     3.829951  s :     3.829951
      pz      :     1.356792  p :     4.454913
      px      :     1.375588
      py      :     1.722533
      dz2     :     0.016034  d :     0.059609
      dxz     :     0.015683
      dyz     :     0.014627
      dx2y2   :     0.006478
      dxy     :     0.006786
      f0      :     0.001028  f :     0.004729
      f+1     :     0.000927
      f-1     :     0.001019
      f+2     :     0.000516
      f-2     :     0.000558
      f+3     :     0.000340
      f-3     :     0.000342
  8 N s       :     3.630689  s :     3.630689
      pz      :     1.286337  p :     3.513557
      px      :     1.213659
      py      :     1.013562
      dz2     :     0.021219  d :     0.107874
      dxz     :     0.019077
      dyz     :     0.029507
      dx2y2   :     0.014596
      dxy     :     0.023474
      f0      :     0.001162  f :     0.009315
      f+1     :     0.000918
      f-1     :     0.001934
      f+2     :     0.001531
      f-2     :     0.001608
      f+3     :     0.001151
      f-3     :     0.001012
  9 H s       :     0.822190  s :     0.822190
      pz      :     0.006410  p :     0.023639
      px      :     0.012031
      py      :     0.005198
 10 H s       :     0.801202  s :     0.801202
      pz      :     0.013307  p :     0.023957
      px      :     0.005004
      py      :     0.005647
 11 H s       :     0.819945  s :     0.819945
      pz      :     0.008213  p :     0.023645
      px      :     0.010344
      py      :     0.005089
 12 H s       :     0.796717  s :     0.796717
      pz      :     0.009160  p :     0.025361
      px      :     0.005491
      py      :     0.010710
 13 H s       :     0.707079  s :     0.707079
      pz      :     0.020161  p :     0.038879
      px      :     0.012326
      py      :     0.006392
 14 H s       :     0.886266  s :     0.886266
      pz      :     0.010282  p :     0.022476
      px      :     0.003677
      py      :     0.008517


                     *******************************
                     * LOEWDIN POPULATION ANALYSIS *
                     *******************************

----------------------
LOEWDIN ATOMIC CHARGES
----------------------
   0 C :   -0.272466
   1 N :    0.104873
   2 N :    0.043737
   3 C :   -0.250342
   4 C :   -0.339872
   5 N :    0.138339
   6 C :   -0.411038
   7 O :    0.083102
   8 N :    0.053845
   9 H :    0.126533
  10 H :    0.134406
  11 H :    0.127257
  12 H :    0.145362
  13 H :    0.201639
  14 H :    0.114626

-------------------------------
LOEWDIN REDUCED ORBITAL CHARGES
-------------------------------
  0 C s       :     2.842399  s :     2.842399
      pz      :     1.098383  p :     3.054460
      px      :     1.092584
      py      :     0.863494
      dz2     :     0.048114  d :     0.331010
      dxz     :     0.041714
      dyz     :     0.065246
      dx2y2   :     0.079421
      dxy     :     0.096516
      f0      :     0.005224  f :     0.044597
      f+1     :     0.001805
      f-1     :     0.007624
      f+2     :     0.006167
      f-2     :     0.002701
      f+3     :     0.011803
      f-3     :     0.009272
  1 N s       :     2.905648  s :     2.905648
      pz      :     1.079952  p :     3.438271
      px      :     1.245085
      py      :     1.113233
      dz2     :     0.157703  d :     0.505869
      dxz     :     0.090252
      dyz     :     0.141741
      dx2y2   :     0.061546
      dxy     :     0.054627
      f0      :     0.011580  f :     0.045340
      f+1     :     0.002920
      f-1     :     0.008243
      f+2     :     0.008997
      f-2     :     0.007622
      f+3     :     0.003337
      f-3     :     0.002640
  2 N s       :     3.112174  s :     3.112174
      pz      :     1.240775  p :     3.512314
      px      :     1.094459
      py      :     1.177080
      dz2     :     0.064388  d :     0.296852
      dxz     :     0.035048
      dyz     :     0.092892
      dx2y2   :     0.043039
      dxy     :     0.061485
      f0      :     0.007404  f :     0.034923
      f+1     :     0.004145
      f-1     :     0.009514
      f+2     :     0.004378
      f-2     :     0.004472
      f+3     :     0.002450
      f-3     :     0.002559
  3 C s       :     2.790824  s :     2.790824
      pz      :     1.005508  p :     2.903222
      px      :     0.935648
      py      :     0.962066
      dz2     :     0.104317  d :     0.480968
      dxz     :     0.057030
      dyz     :     0.180660
      dx2y2   :     0.073197
      dxy     :     0.065764
      f0      :     0.015003  f :     0.075329
      f+1     :     0.009132
      f-1     :     0.017219
      f+2     :     0.010648
      f-2     :     0.002227
      f+3     :     0.011406
      f-3     :     0.009694
  4 C s       :     2.717591  s :     2.717591
      pz      :     1.004639  p :     2.786980
      px      :     0.902242
      py      :     0.880098
      dz2     :     0.150782  d :     0.725248
      dxz     :     0.110175
      dyz     :     0.236167
      dx2y2   :     0.098982
      dxy     :     0.129142
      f0      :     0.012881  f :     0.110053
      f+1     :     0.007838
      f-1     :     0.034617
      f+2     :     0.014702
      f-2     :     0.016274
      f+3     :     0.012654
      f-3     :     0.011088
  5 N s       :     2.921914  s :     2.921914
      pz      :     1.111419  p :     3.669086
      px      :     1.389354
      py      :     1.168313
      dz2     :     0.066498  d :     0.251489
      dxz     :     0.018270
      dyz     :     0.070350
      dx2y2   :     0.048031
      dxy     :     0.048340
      f0      :     0.002531  f :     0.019172
      f+1     :     0.000656
      f-1     :     0.004399
      f+2     :     0.003247
      f-2     :     0.002701
      f+3     :     0.002557
      f-3     :     0.003082
  6 C s       :     2.803865  s :     2.803865
      pz      :     0.986783  p :     2.692788
      px      :     0.778620
      py      :     0.927385
      dz2     :     0.199999  d :     0.795621
      dxz     :     0.113211
      dyz     :     0.305437
      dx2y2   :     0.074254
      dxy     :     0.102720
      f0      :     0.028357  f :     0.118764
      f+1     :     0.020196
      f-1     :     0.032009
      f+2     :     0.013950
      f-2     :     0.005734
      f+3     :     0.010795
      f-3     :     0.007723
  7 O s       :     3.408435  s :     3.408435
      pz      :     1.503929  p :     4.400546
      px      :     1.301312
      py      :     1.595305
      dz2     :     0.036257  d :     0.098723
      dxz     :     0.020497
      dyz     :     0.027212
      dx2y2   :     0.007497
      dxy     :     0.007259
      f0      :     0.002829  f :     0.009195
      f+1     :     0.001544
      f-1     :     0.002498
      f+2     :     0.000837
      f-2     :     0.000772
      f+3     :     0.000354
      f-3     :     0.000361
  8 N s       :     3.103571  s :     3.103571
      pz      :     1.304050  p :     3.523367
      px      :     1.127490
      py      :     1.091827
      dz2     :     0.050943  d :     0.284852
      dxz     :     0.028987
      dyz     :     0.098085
      dx2y2   :     0.044120
      dxy     :     0.062717
      f0      :     0.004991  f :     0.034365
      f+1     :     0.002320
      f-1     :     0.010540
      f+2     :     0.005184
      f-2     :     0.006618
      f+3     :     0.002140
      f-3     :     0.002572
  9 H s       :     0.806874  s :     0.806874
      pz      :     0.018565  p :     0.066594
      px      :     0.034789
      py      :     0.013240
 10 H s       :     0.798201  s :     0.798201
      pz      :     0.038637  p :     0.067393
      px      :     0.014654
      py      :     0.014103
 11 H s       :     0.806081  s :     0.806081
      pz      :     0.023791  p :     0.066662
      px      :     0.029952
      py      :     0.012920
 12 H s       :     0.784701  s :     0.784701
      pz      :     0.025904  p :     0.069936
      px      :     0.015365
      py      :     0.028668
 13 H s       :     0.688939  s :     0.688939
      pz      :     0.057910  p :     0.109422
      px      :     0.033579
      py      :     0.017933
 14 H s       :     0.825018  s :     0.825018
      pz      :     0.028664  p :     0.060357
      px      :     0.009653
      py      :     0.022040


                      *****************************
                      * MAYER POPULATION ANALYSIS *
                      *****************************

  NA   - Mulliken gross atomic population
  ZA   - Total nuclear charge
  QA   - Mulliken gross atomic charge
  VA   - Mayer's total valence
  BVA  - Mayer's bonded valence
  FA   - Mayer's free valence

  ATOM       NA         ZA         QA         VA         BVA        FA
  0 C      6.3183     6.0000    -0.3183     3.9690     3.6864     0.2826
  1 N      6.7684     7.0000     0.2316     3.5869     3.1258     0.4611
  2 N      7.2349     7.0000    -0.2349     3.1354     2.6808     0.4546
  3 C      6.1610     6.0000    -0.1610     4.2639     3.8776     0.3862
  4 C      5.8128     6.0000     0.1872     4.2476     3.8823     0.3653
  5 N      7.3084     7.0000    -0.3084     3.3030     2.9125     0.3905
  6 C      5.7942     6.0000     0.2058     4.2679     3.9620     0.3059
  7 O      8.3492     8.0000    -0.3492     2.4231     1.9850     0.4381
  8 N      7.2614     7.0000    -0.2614     3.1534     2.6880     0.4654
  9 H      0.8458     1.0000     0.1542     0.9664     0.9189     0.0475
 10 H      0.8252     1.0000     0.1748     0.9698     0.9238     0.0460
 11 H      0.8436     1.0000     0.1564     0.9669     0.9196     0.0473
 12 H      0.8221     1.0000     0.1779     0.9982     0.9531     0.0451
 13 H      0.7460     1.0000     0.2540     0.9517     0.9055     0.0462
 14 H      0.9087     1.0000     0.0913     0.9764     0.9282     0.0481

  Mayer bond orders larger than 0.1
B(  0-C ,  1-N ) :   0.8602 B(  0-C ,  9-H ) :   0.9281 B(  0-C , 10-H ) :   0.9251 
B(  0-C , 11-H ) :   0.9286 B(  1-N ,  2-N ) :   1.1258 B(  1-N ,  8-N ) :   1.0960 
B(  2-N ,  3-C ) :   1.4287 B(  3-C ,  4-C ) :   1.4035 B(  3-C , 12-H ) :   0.9052 
B(  4-C ,  5-N ) :   0.9616 B(  4-C ,  8-N ) :   1.4344 B(  5-N ,  6-C ) :   1.1061 
B(  5-N , 13-H ) :   0.8573 B(  6-C ,  7-O ) :   1.8899 B(  6-C , 14-H ) :   0.9291 



-------
TIMINGS
-------

Total time                :  743.284 sec
Integral trafo            :    5.700 sec (  0.8%)
FC preparation            :    3.097 sec (  0.4%)
I/O of integrals          :    0.045 sec (  0.0%)
K(i,j) Operators          :    7.474 sec (  1.0%)
T(i,j) pair energies      :    0.696 sec (  0.1%)
V-calculation             :    0.017 sec (  0.0%)
V**(-1/2)                 :    0.108 sec (  0.0%)
Gamma(ia|P)               :    7.310 sec (  1.0%)
Gamma-Trafo               :    1.239 sec (  0.2%)
D(virtual)                :    2.761 sec (  0.4%)
D(internal)               :    2.471 sec (  0.3%)
W(virtual)                :    0.000 sec (  0.0%)
W(internal)               :    0.000 sec (  0.0%)
L(virtual)                :    8.095 sec (  1.1%)
L(internal)               :    0.163 sec (  0.0%)
G(D)                      :   97.563 sec ( 13.1%)
G(Z)                      :    0.000 sec (  0.0%)
Z-Vector Solution         :  605.926 sec ( 81.5%)
3-Index Derivative        :    0.000 sec (  0.0%)
2-Index Derivative        :    0.000 sec (  0.0%)
Separable Gradient (RIJ)  :    0.000 sec (  0.0%)
Separable Gradient (X)    :    0.000 sec (  0.0%)


---------------------------------------
MP2 TOTAL ENERGY:     -449.422925882 Eh
---------------------------------------

-------------------------   --------------------
FINAL SINGLE POINT ENERGY      -449.422925881929
-------------------------   --------------------


                            ***************************************
                            *     ORCA property calculations      *
                            ***************************************

                                    ---------------------
                                    Active property flags
                                    ---------------------
   (+) Dipole Moment


------------------------------------------------------------------------------
                       ORCA ELECTRIC PROPERTIES CALCULATION
------------------------------------------------------------------------------

Dipole Moment Calculation                       ... on
Quadrupole Moment Calculation                   ... off
Polarizability Calculation                      ... off
GBWName                                         ... dsgdb9nsd_127605.gbw
Electron density file                           ... dsgdb9nsd_127605.scfp.tmp

-------------
DIPOLE MOMENT
-------------
                                X             Y             Z
Electronic contribution:      0.00216      -4.41184      -0.27097
Nuclear contribution   :      0.05662       5.14932       1.62051
                        -----------------------------------------
Total Dipole Moment    :      0.05877       0.73749       1.34955
                        -----------------------------------------
Magnitude (a.u.)       :      1.53903
Magnitude (Debye)      :      3.91191


                         *** MP2 UNRELAXED DENSITY ***

------------------------------------------------------------------------------
                       ORCA ELECTRIC PROPERTIES CALCULATION
------------------------------------------------------------------------------

Dipole Moment Calculation                       ... on
Quadrupole Moment Calculation                   ... off
Polarizability Calculation                      ... off
GBWName                                         ... dsgdb9nsd_127605.gbw
Electron density file                           ... dsgdb9nsd_127605.pmp2ur

-------------
DIPOLE MOMENT
-------------
                                X             Y             Z
Electronic contribution:      0.00013      -4.39359      -0.30720
Nuclear contribution   :      0.05662       5.14932       1.62051
                        -----------------------------------------
Total Dipole Moment    :      0.05674       0.75573       1.31332
                        -----------------------------------------
Magnitude (a.u.)       :      1.51629
Magnitude (Debye)      :      3.85411


                           *** MP2 RELAXED DENSITY ***

------------------------------------------------------------------------------
                       ORCA ELECTRIC PROPERTIES CALCULATION
------------------------------------------------------------------------------

Dipole Moment Calculation                       ... on
Quadrupole Moment Calculation                   ... off
Polarizability Calculation                      ... off
GBWName                                         ... dsgdb9nsd_127605.gbw
Electron density file                           ... dsgdb9nsd_127605.pmp2re

-------------
DIPOLE MOMENT
-------------
                                X             Y             Z
Electronic contribution:     -0.00548      -4.24941      -0.40575
Nuclear contribution   :      0.05662       5.14932       1.62051
                        -----------------------------------------
Total Dipole Moment    :      0.05113       0.89991       1.21476
                        -----------------------------------------
Magnitude (a.u.)       :      1.51264
Magnitude (Debye)      :      3.84484


Timings for individual modules:

Sum of individual times         ...      880.996 sec (=  14.683 min)
GTO integral calculation        ...        0.501 sec (=   0.008 min)   0.1 %
SCF iterations                  ...      137.065 sec (=   2.284 min)  15.6 %
MP2 module                      ...      743.430 sec (=  12.391 min)  84.4 %
                             ****ORCA TERMINATED NORMALLY****
TOTAL RUN TIME: 0 days 0 hours 14 minutes 41 seconds 495 msec
