
                                 *****************
                                 * O   R   C   A *
                                 *****************

           --- An Ab Initio, DFT and Semiempirical electronic structure package ---

                  #######################################################
                  #                        -***-                        #
                  #  Department of molecular theory and spectroscopy    #
                  #              Directorship: Frank Neese              #
                  # Max Planck Institute for Chemical Energy Conversion #
                  #                  D-45470 Muelheim/Ruhr              #
                  #                       Germany                       #
                  #                                                     #
                  #                  All rights reserved                #
                  #                        -***-                        #
                  #######################################################


                         Program Version 3.0.3 - RELEASE   -


 With contributions from (in alphabetic order):
   Ute Becker             : Parallelization
   Dmytro Bykov           : SCF Hessian
   Dmitry Ganyushin       : Spin-Orbit,Spin-Spin,Magnetic field MRCI
   Andreas Hansen         : Spin unrestricted coupled pair/coupled cluster methods
   Dimitrios Liakos       : Extrapolation schemes; parallel MDCI
   Robert Izsak           : Overlap fitted RIJCOSX, COSX-SCS-MP3
   Christian Kollmar      : KDIIS, OOCD, Brueckner-CCSD(T), CCSD density
   Simone Kossmann        : Meta GGA functionals, TD-DFT gradient, OOMP2, MP2 Hessian
   Taras Petrenko         : DFT Hessian,TD-DFT gradient, ASA and ECA modules, normal mode analysis, Resonance Raman, ABS, FL, XAS/XES, NRVS
   Christoph Reimann      : Effective Core Potentials
   Michael Roemelt        : Restricted open shell CIS
   Christoph Riplinger    : Improved optimizer, TS searches, QM/MM, DLPNO-CCSD
   Barbara Sandhoefer     : DKH picture change effects
   Igor Schapiro          : Molecular dynamics
   Kantharuban Sivalingam : CASSCF convergence, NEVPT2
   Boris Wezisla          : Elementary symmetry handling
   Frank Wennmohs         : Technical directorship


 We gratefully acknowledge several colleagues who have allowed us to
 interface, adapt or use parts of their codes:
   Stefan Grimme, W. Hujo, H. Kruse, T. Risthaus : VdW corrections, initial TS optimization,
                                                   DFT functionals, gCP
   Ed Valeev                                     : LibInt (2-el integral package), F12 methods
   Garnet Chan, S. Sharma, R. Olivares           : DMRG
   Ulf Ekstrom                                   : XCFun DFT Library
   Mihaly Kallay                                 : mrcc  (arbitrary order and MRCC methods)
   Andreas Klamt, Michael Diedenhofen            : otool_cosmo (COSMO solvation model)
   Frank Weinhold                                : gennbo (NPA and NBO analysis)
   Christopher J. Cramer and Donald G. Truhlar   : smd solvation model


 Your calculation uses the libint2 library for the computation of 2-el integrals
 For citations please refer to: http://libint.valeyev.net

 This ORCA versions uses:
   CBLAS   interface :  Fast vector & matrix operations
   LAPACKE interface :  Fast linear algebra routines
   SCALAPACK package :  Parallel linear algebra routines


Your calculation utilizes the basis: Ahlrichs-TZV
Cite in your paper:
H - Kr: A. Schaefer, H. Horn and R. Ahlrichs, J. Chem. Phys. 97, 2571 (1992).

The def2-TZV basis will be loaded
Cite in your paper:
 	F. Weigend, R. Ahlrichs, Phys. Chem. Chem. Phys. 2005, 7, 3297.

================================================================================
                                        WARNINGS
                       Please study these warnings very carefully!
================================================================================
Now building the actual basis set


INFO   : the flag for use of LIBINT has been found!

================================================================================
                                       INPUT FILE
================================================================================
NAME = dsgdb9nsd_097245.inp
|  1> ! RI-MP2 RIJK def2-TZVP def2-TZVP/C def2-TZVP/JK TIGHTSCF
|  2> % maxcore 2000
|  3> % mp2 density relaxed end
|  4> *xyz 0 1
|  5>  C        0.0008902031     1.4867159415     0.1127122460 
|  6>  N        0.0148268658     0.0351769519     0.0699584804 
|  7>  C       -1.0618493885    -0.6094362535    -0.0774782204 
|  8>  O       -2.2837959541     0.0188815147    -0.1253379546 
|  9>  C       -3.2852546157    -0.4936841694    -1.0140058749 
| 10>  C       -3.4617007820    -2.0001175069    -0.8933432152 
| 11>  C       -2.1054305998    -2.6805706270    -1.0824764081 
| 12>  C       -1.0854665434    -2.1309314352    -0.0678015867 
| 13>  C        0.3045830248    -2.7405795853    -0.2486385153 
| 14>  H        0.8669786076     1.8633966374    -0.4412736348 
| 15>  H       -0.9125953798     1.9398151961    -0.2875508964 
| 16>  H        0.1193003923     1.8211172933     1.1511648127 
| 17>  H       -4.1995156259     0.0484455325    -0.7588645079 
| 18>  H       -3.0115477759    -0.2282113970    -2.0459206129 
| 19>  H       -3.8703852992    -2.2436208551     0.0950738722 
| 20>  H       -4.1891978266    -2.3377849329    -1.6399453279 
| 21>  H       -2.1888371403    -3.7661269459    -0.9648992813 
| 22>  H       -1.7400009441    -2.5008197830    -2.1031942234 
| 23>  H       -1.4591194426    -2.4046125034     0.9319748845 
| 24>  H        0.7166330630    -2.4864729427    -1.2301041731 
| 25>  H        0.9984647543    -2.3639149327     0.5036166771 
| 26>  H        0.2494602570    -3.8315521976    -0.1703759399 
| 27> *
| 28> 
| 29>                          ****END OF INPUT****
================================================================================

                       ****************************
                       * Single Point Calculation *
                       ****************************

---------------------------------
CARTESIAN COORDINATES (ANGSTROEM)
---------------------------------
  C      0.000890    1.486716    0.112712
  N      0.014827    0.035177    0.069958
  C     -1.061849   -0.609436   -0.077478
  O     -2.283796    0.018882   -0.125338
  C     -3.285255   -0.493684   -1.014006
  C     -3.461701   -2.000118   -0.893343
  C     -2.105431   -2.680571   -1.082476
  C     -1.085467   -2.130931   -0.067802
  C      0.304583   -2.740580   -0.248639
  H      0.866979    1.863397   -0.441274
  H     -0.912595    1.939815   -0.287551
  H      0.119300    1.821117    1.151165
  H     -4.199516    0.048446   -0.758865
  H     -3.011548   -0.228211   -2.045921
  H     -3.870385   -2.243621    0.095074
  H     -4.189198   -2.337785   -1.639945
  H     -2.188837   -3.766127   -0.964899
  H     -1.740001   -2.500820   -2.103194
  H     -1.459119   -2.404613    0.931975
  H      0.716633   -2.486473   -1.230104
  H      0.998465   -2.363915    0.503617
  H      0.249460   -3.831552   -0.170376

----------------------------
CARTESIAN COORDINATES (A.U.)
----------------------------
  NO LB      ZA    FRAG    MASS        X           Y           Z
   0 C     6.0000    0    12.011          0.001682240062568          2.809485968369889          0.212995276879161
   1 N     7.0000    0    14.007          0.028018715786403          0.066474805317121          0.132202368701298
   2 C     6.0000    0    12.011         -2.006604539736750         -1.151667615198007         -0.146412617899591
   3 O     8.0000    0    15.999         -4.315748899006389          0.035680891776608         -0.236854408379855
   4 C     6.0000    0    12.011         -6.208231503873709         -0.932927876818386         -1.916193401748213
   5 C     6.0000    0    12.011         -6.541666435561034         -3.779674323702350         -1.688174020324677
   6 C     6.0000    0    12.011         -3.978687227599556         -5.065544367663575         -2.045583957739776
   7 C     6.0000    0    12.011         -2.051234494560146         -4.026876822691760         -0.128126430308318
   8 C     6.0000    0    12.011          0.575578501913345         -5.178944864432476         -0.469858700261789
   9 H     1.0000    0     1.008          1.638352132332378          3.521309323555762         -0.833886319891982
  10 H     1.0000    0     1.008         -1.724555338903850          3.665719471047748         -0.543392443759562
  11 H     1.0000    0     1.008          0.225445069116368          3.441412942084943          2.175386231009753
  12 H     1.0000    0     1.008         -7.935934428073892          0.091548788836981         -1.434046092683920
  13 H     1.0000    0     1.008         -5.691000535670651         -0.431257040969578         -3.866229650125314
  14 H     1.0000    0     1.008         -7.313968248242863         -4.239828964493216          0.179663580949429
  15 H     1.0000    0     1.008         -7.916436613092128         -4.417773283188470         -3.099047544334686
  16 H     1.0000    0     1.008         -4.136302746922367         -7.116948513332257         -1.823395388474443
  17 H     1.0000    0     1.008         -3.288125257113421         -4.725864500162373         -3.974461088671192
  18 H     1.0000    0     1.008         -2.757336143193830         -4.544059089628785          1.761177295397890
  19 H     1.0000    0     1.008          1.354240227583135         -4.698752901108269         -2.324560003352661
  20 H     1.0000    0     1.008          1.886824939999971         -4.467151826689888          0.951697596194450
  21 H     1.0000    0     1.008          0.471411567027612         -7.240584321288124         -0.321963866220426

--------------------------------
INTERNAL COORDINATES (ANGSTROEM)
--------------------------------
 C      0   0   0   0.000000     0.000     0.000
 N      1   0   0   1.452235     0.000     0.000
 C      2   1   0   1.263525   120.344     0.000
 O      3   2   1   1.374855   121.888   356.204
 C      4   3   2   1.433657   118.622   143.214
 C      5   4   3   1.521524   112.695    48.464
 C      6   5   4   1.529136   109.142   305.840
 C      3   2   1   1.521709   121.506   182.588
 C      8   3   2   1.528598   112.576   344.394
 H      1   2   3   1.094942   108.746   219.770
 H      1   2   3   1.095429   114.247   342.310
 H      1   2   3   1.097374   109.354   103.524
 H      5   4   3   1.093103   105.204   170.840
 H      5   4   3   1.100109   108.746   286.217
 H      6   5   4   1.096944   109.539    66.409
 H      6   5   4   1.095758   109.151   183.679
 H      7   6   5   1.095086   111.118   177.899
 H      7   6   5   1.098960   109.696   295.626
 H      8   3   2   1.101849   105.033   102.218
 H      9   8   3   1.094363   110.848   296.152
 H      9   8   3   1.090521   111.054    55.446
 H      9   8   3   1.095164   110.064   176.337

---------------------------
INTERNAL COORDINATES (A.U.)
---------------------------
 C      0   0   0   0.000000     0.000     0.000
 N      1   0   0   2.744327     0.000     0.000
 C      2   1   0   2.387716   120.344     0.000
 O      3   2   1   2.598100   121.888   356.204
 C      4   3   2   2.709220   118.622   143.214
 C      5   4   3   2.875263   112.695    48.464
 C      6   5   4   2.889648   109.142   305.840
 C      3   2   1   2.875614   121.506   182.588
 C      8   3   2   2.888631   112.576   344.394
 H      1   2   3   2.069140   108.746   219.770
 H      1   2   3   2.070061   114.247   342.310
 H      1   2   3   2.073736   109.354   103.524
 H      5   4   3   2.065666   105.204   170.840
 H      5   4   3   2.078904   108.746   286.217
 H      6   5   4   2.072923   109.539    66.409
 H      6   5   4   2.070683   109.151   183.679
 H      7   6   5   2.069413   111.118   177.899
 H      7   6   5   2.076734   109.696   295.626
 H      8   3   2   2.082192   105.033   102.218
 H      9   8   3   2.068046   110.848   296.152
 H      9   8   3   2.060786   111.054    55.446
 H      9   8   3   2.069561   110.064   176.337

---------------------
BASIS SET INFORMATION
---------------------
There are 4 groups of distinct atoms

 Group   1 Type C   : 11s6p2d1f contracted to 5s3p2d1f pattern {62111/411/11/1}
 Group   2 Type N   : 11s6p2d1f contracted to 5s3p2d1f pattern {62111/411/11/1}
 Group   3 Type O   : 11s6p2d1f contracted to 5s3p2d1f pattern {62111/411/11/1}
 Group   4 Type H   : 5s1p contracted to 3s1p pattern {311/1}

Atom   0C    basis set group =>   1
Atom   1N    basis set group =>   2
Atom   2C    basis set group =>   1
Atom   3O    basis set group =>   3
Atom   4C    basis set group =>   1
Atom   5C    basis set group =>   1
Atom   6C    basis set group =>   1
Atom   7C    basis set group =>   1
Atom   8C    basis set group =>   1
Atom   9H    basis set group =>   4
Atom  10H    basis set group =>   4
Atom  11H    basis set group =>   4
Atom  12H    basis set group =>   4
Atom  13H    basis set group =>   4
Atom  14H    basis set group =>   4
Atom  15H    basis set group =>   4
Atom  16H    basis set group =>   4
Atom  17H    basis set group =>   4
Atom  18H    basis set group =>   4
Atom  19H    basis set group =>   4
Atom  20H    basis set group =>   4
Atom  21H    basis set group =>   4
-------------------------------
AUXILIARY BASIS SET INFORMATION
-------------------------------
There are 4 groups of distinct atoms

 Group   1 Type C   : 14s10p6d2f1g contracted to 10s8p5d1f1g pattern {5111111111/31111111/21111/2/1}
 Group   2 Type N   : 14s10p6d2f1g contracted to 10s8p4d2f1g pattern {5111111111/31111111/3111/11/1}
 Group   3 Type O   : 14s10p6d2f1g contracted to 10s8p4d2f1g pattern {5111111111/31111111/3111/11/1}
 Group   4 Type H   : 4s2p2d contracted to 2s2p2d pattern {31/11/11}

Atom   0C    basis set group =>   1
Atom   1N    basis set group =>   2
Atom   2C    basis set group =>   1
Atom   3O    basis set group =>   3
Atom   4C    basis set group =>   1
Atom   5C    basis set group =>   1
Atom   6C    basis set group =>   1
Atom   7C    basis set group =>   1
Atom   8C    basis set group =>   1
Atom   9H    basis set group =>   4
Atom  10H    basis set group =>   4
Atom  11H    basis set group =>   4
Atom  12H    basis set group =>   4
Atom  13H    basis set group =>   4
Atom  14H    basis set group =>   4
Atom  15H    basis set group =>   4
Atom  16H    basis set group =>   4
Atom  17H    basis set group =>   4
Atom  18H    basis set group =>   4
Atom  19H    basis set group =>   4
Atom  20H    basis set group =>   4
Atom  21H    basis set group =>   4
------------------------------------------------------------------------------
                           ORCA GTO INTEGRAL CALCULATION
                           -- RI-GTO INTEGRALS CHOSEN --
------------------------------------------------------------------------------

                         BASIS SET STATISTICS AND STARTUP INFO

Gaussian basis set:
 # of primitive gaussian shells          ...  258
 # of primitive gaussian functions       ...  518
 # of contracted shells                  ...  151
 # of contracted basis functions         ...  357
 Highest angular momentum                ...    3
 Maximum contraction depth               ...    6
Auxiliary gaussian basis set:
 # of primitive gaussian shells          ...  401
 # of primitive gaussian functions       ... 1133
 # of contracted shells                  ...  303
 # of contracted aux-basis functions     ...  913
 Highest angular momentum                ...    4
 Maximum contraction depth               ...    5
Ratio of auxiliary to basis functions    ...  2.56
Integral package used                  ... LIBINT
 One Electron integrals                  ... done
 Ordering auxiliary basis shells         ... done
 Integral threshhold             Thresh  ...  2.500e-11
 Primitive cut-off               TCut    ...  2.500e-12
 Pre-screening matrix                    ... done
 Shell pair data                         ... 
 Ordering of the shell pairs             ... done (   0.002 sec) 10409 of 11476 pairs
 Determination of significant pairs      ... done (   0.000 sec)
 Creation of shell pair data             ... done (   0.002 sec)
 Storage of shell pair data              ... done (   0.002 sec)
 Shell pair data done in (   0.006 sec)
 Computing two index integrals           ... done
 Cholesky decomposition of the V-matrix  ... done


Timings:
 Total evaluation time                   ...   0.428 sec (  0.007 min)
 One electron matrix time                ...   0.113 sec (  0.002 min) = 26.4%
 Schwartz matrix evaluation time         ...   0.217 sec (  0.004 min) = 50.6%
 Two index repulsion integral time       ...   0.024 sec (  0.000 min) =  5.7%
 Cholesky decomposition of V             ...   0.040 sec (  0.001 min) =  9.4%
 Three index repulsion integral time     ...   0.000 sec (  0.000 min) =  0.0%

-------------------------------------------------------------------------------
                                 ORCA SCF
-------------------------------------------------------------------------------

------------
SCF SETTINGS
------------
Hamiltonian:
 Ab initio Hamiltonian  Method          .... Hartree-Fock(GTOs)
 RI-approximation to the Coulomb term is turned on
   Number of auxiliary basis functions  .... 913
   RI-JK (J+K treated both via RI)      .... on


General Settings:
 Integral files         IntName         .... dsgdb9nsd_097245
 Hartree-Fock type      HFTyp           .... RHF
 Total Charge           Charge          ....    0
 Multiplicity           Mult            ....    1
 Number of Electrons    NEL             ....   70
 Basis Dimension        Dim             ....  357
 Nuclear Repulsion      ENuc            ....    480.9798692891 Eh

Convergence Acceleration:
 DIIS                   CNVDIIS         .... on
   Start iteration      DIISMaxIt       ....    12
   Startup error        DIISStart       ....  0.200000
   # of expansion vecs  DIISMaxEq       ....     5
   Bias factor          DIISBfac        ....   1.050
   Max. coefficient     DIISMaxC        ....  10.000
 Newton-Raphson         CNVNR           .... off
 SOSCF                  CNVSOSCF        .... on
   Start iteration      SOSCFMaxIt      ....   150
   Startup grad/error   SOSCFStart      ....  0.003300
 Level Shifting         CNVShift        .... on
   Level shift para.    LevelShift      ....    0.2500
   Turn off err/grad.   ShiftErr        ....    0.0010
 Zerner damping         CNVZerner       .... off
 Static damping         CNVDamp         .... on
   Fraction old density DampFac         ....    0.7000
   Max. Damping (<1)    DampMax         ....    0.9800
   Min. Damping (>=0)   DampMin         ....    0.0000
   Turn off err/grad.   DampErr         ....    0.1000
 Fernandez-Rico         CNVRico         .... off

SCF Procedure:
 Maximum # iterations   MaxIter         ....   125
 SCF integral mode      SCFMode         .... Direct
   Integral package                     .... LIBINT
 Reset frequeny         DirectResetFreq ....    20
 Integral Threshold     Thresh          ....  2.500e-11 Eh
 Primitive CutOff       TCut            ....  2.500e-12 Eh

Convergence Tolerance:
 Convergence Check Mode ConvCheckMode   .... Total+1el-Energy
 Energy Change          TolE            ....  1.000e-08 Eh
 1-El. energy change                    ....  1.000e-05 Eh
 Orbital Gradient       TolG            ....  1.000e-05
 Orbital Rotation angle TolX            ....  1.000e-05
 DIIS Error             TolErr          ....  5.000e-07


Diagonalization of the overlap matrix:
Smallest eigenvalue                        ... 8.710e-05
Time for diagonalization                   ...    0.037 sec
Threshold for overlap eigenvalues          ... 1.000e-08
Number of eigenvalues below threshold      ... 0
Time for construction of square roots      ...    0.020 sec
Total time needed                          ...    0.057 sec

-------------------
DFT GRID GENERATION
-------------------

General Integration Accuracy     IntAcc      ...  4.340
Radial Grid Type                 RadialGrid  ... Gauss-Chebyshev
Angular Grid (max. acc.)         AngularGrid ... Lebedev-110
Angular grid pruning method      GridPruning ... 3 (G Style)
Weight generation scheme         WeightScheme... Becke
Basis function cutoff            BFCut       ...    1.0000e-11
Integration weight cutoff        WCut        ...    1.0000e-14
Grids for H and He will be reduced by one unit

# of grid points (after initial pruning)     ...  25332 (   0.0 sec)
# of grid points (after weights+screening)   ...  23040 (   0.2 sec)
nearest neighbour list constructed           ...    0.0 sec
Grid point re-assignment to atoms done       ...    0.0 sec
Grid point division into batches done        ...    0.0 sec
Reduced shell lists constructed in    1.5 sec

Total number of grid points                  ...    23040
Total number of batches                      ...      370
Average number of points per batch           ...       62
Average number of grid points per atom       ...     1047
Average number of shells per batch           ...    99.49 (65.89%)
Average number of basis functions per batch  ...   239.80 (67.17%)
Average number of large shells per batch     ...    75.92 (76.30%)
Average number of large basis fcns per batch ...   179.68 (74.93%)
Average number of aux-shells per batch       ...    99.49 (32.84%)
Average number of aux functions per batch    ...   239.80 (  inf%)
Maximum spatial batch extension              ...  25.60, 18.98, 23.36 au
Average spatial batch extension              ...   3.59,  3.45,  3.67 au

Time for grid setup =    1.618 sec

------------------------------
INITIAL GUESS: MODEL POTENTIAL
------------------------------
Loading Hartree-Fock densities                     ... done
Calculating cut-offs                               ... done
Setting up the integral package                    ... done
Initializing the effective Hamiltonian             ... done
Starting the Coulomb interaction                   ... done (   0.9 sec)
Reading the grid                                   ... done
Mapping shells                                     ... done
Starting the XC term evaluation                    ... done (   0.8 sec)
Transforming the Hamiltonian                       ... done (   0.0 sec)
Diagonalizing the Hamiltonian                      ... done (   0.0 sec)
Back transforming the eigenvectors                 ... done (   0.0 sec)
Now organizing SCF variables                       ... done
                      ------------------
                      INITIAL GUESS DONE (   3.5 sec)
                      ------------------
--------------
SCF ITERATIONS
--------------
ITER       Energy         Delta-E        Max-DP      RMS-DP      [F,P]     Damp
  0   -401.6440927651   0.000000000000 0.03941017  0.00077639  0.2994156 0.7000
  1   -401.5164378801   0.127654884955 0.04048539  0.00085068  0.2530473 0.7000
                               ***Turning on DIIS***
  2   -401.5699812881  -0.053543407912 0.02915035  0.00062274  0.1783659 0.7000
  3   -402.7914213733  -1.221440085231 0.01207521  0.00032925  0.1239862 0.7000
  4   -402.0023165180   0.789104855331 0.03072369  0.00078028  0.0834508 0.0000
  5   -401.9810251304   0.021291387543 0.01122257  0.00020341  0.0205906 0.0000
  6   -401.9520464174   0.028978713004 0.00460660  0.00010636  0.0204787 0.0000
  7   -401.9906911088  -0.038644691416 0.00234574  0.00006335  0.0107322 0.0000
  8   -401.9912848630  -0.000593754179 0.00289378  0.00005056  0.0072884 0.0000
                      *** Initiating the SOSCF procedure ***
                           *** Shutting down DIIS ***
                      *** Re-Reading the Fockian *** 
                      *** Removing any level shift *** 
ITER      Energy       Delta-E        Grad      Rot      Max-DP    RMS-DP
  9   -402.08425913  -0.0929742658  0.000543  0.000543  0.000565  0.000012
 10   -402.09184028  -0.0075811483  0.000296  0.000532  0.000387  0.000008
 11   -402.09184235  -0.0000020690  0.000107  0.000526  0.000415  0.000010
 12   -402.09184316  -0.0000008187  0.000049  0.000037  0.000090  0.000002
 13   -402.09184325  -0.0000000807  0.000014  0.000028  0.000030  0.000001
                  ***Gradient check signals convergence***
              ***Rediagonalizing the Fockian in SOSCF/NRSCF***

               *****************************************************
               *                     SUCCESS                       *
               *           SCF CONVERGED AFTER  14 CYCLES          *
               *****************************************************


----------------
TOTAL SCF ENERGY
----------------

Total Energy       :         -402.09184325 Eh          -10941.47531 eV

Components:
Nuclear Repulsion  :          480.97986929 Eh           13088.12763 eV
Electronic Energy  :         -883.07171254 Eh          -24029.60294 eV

One Electron Energy:        -1500.17152496 Eh          -40821.74253 eV
Two Electron Energy:          617.09981242 Eh           16792.13959 eV

Virial components:
Potential Energy   :         -803.63972330 Eh          -21868.14863 eV
Kinetic Energy     :          401.54788004 Eh           10926.67332 eV
Virial Ratio       :            2.00135467


---------------
SCF CONVERGENCE
---------------

  Last Energy change         ...   -7.7671e-09  Tolerance :   1.0000e-08
  Last MAX-Density change    ...    9.2679e-06  Tolerance :   1.0000e-07
  Last RMS-Density change    ...    2.2959e-07  Tolerance :   5.0000e-09
  Last Orbital Gradient      ...    2.4761e-06  Tolerance :   1.0000e-05
  Last Orbital Rotation      ...    3.5716e-06  Tolerance :   1.0000e-05

             **** THE GBW FILE WAS UPDATED (dsgdb9nsd_097245.gbw) ****
             **** DENSITY FILE WAS UPDATED (dsgdb9nsd_097245.scfp.tmp) ****
             **** ENERGY FILE WAS UPDATED (dsgdb9nsd_097245.en.tmp) ****
----------------
ORBITAL ENERGIES
----------------

  NO   OCC          E(Eh)            E(eV) 
   0   2.0000     -20.576122      -559.9048 
   1   2.0000     -15.529006      -422.5657 
   2   2.0000     -11.318966      -308.0047 
   3   2.0000     -11.289608      -307.2059 
   4   2.0000     -11.238835      -305.8242 
   5   2.0000     -11.233535      -305.6800 
   6   2.0000     -11.231949      -305.6369 
   7   2.0000     -11.229135      -305.5603 
   8   2.0000     -11.207550      -304.9729 
   9   2.0000      -1.407997       -38.3135 
  10   2.0000      -1.203948       -32.7611 
  11   2.0000      -1.099903       -29.9299 
  12   2.0000      -1.033351       -28.1189 
  13   2.0000      -0.939852       -25.5747 
  14   2.0000      -0.924508       -25.1571 
  15   2.0000      -0.845226       -22.9998 
  16   2.0000      -0.823983       -22.4217 
  17   2.0000      -0.732527       -19.9331 
  18   2.0000      -0.679013       -18.4769 
  19   2.0000      -0.658122       -17.9084 
  20   2.0000      -0.633618       -17.2416 
  21   2.0000      -0.616439       -16.7742 
  22   2.0000      -0.605994       -16.4899 
  23   2.0000      -0.586639       -15.9633 
  24   2.0000      -0.561522       -15.2798 
  25   2.0000      -0.558411       -15.1951 
  26   2.0000      -0.536484       -14.5985 
  27   2.0000      -0.524367       -14.2687 
  28   2.0000      -0.520028       -14.1507 
  29   2.0000      -0.486174       -13.2295 
  30   2.0000      -0.477931       -13.0052 
  31   2.0000      -0.463878       -12.6228 
  32   2.0000      -0.441605       -12.0167 
  33   2.0000      -0.395187       -10.7536 
  34   2.0000      -0.374374       -10.1872 
  35   0.0000       0.125801         3.4232 
  36   0.0000       0.154052         4.1920 
  37   0.0000       0.158019         4.2999 
  38   0.0000       0.167826         4.5668 
  39   0.0000       0.181400         4.9361 
  40   0.0000       0.191446         5.2095 
  41   0.0000       0.201522         5.4837 
  42   0.0000       0.210961         5.7405 
  43   0.0000       0.216835         5.9004 
  44   0.0000       0.229687         6.2501 
  45   0.0000       0.235942         6.4203 
  46   0.0000       0.239955         6.5295 
  47   0.0000       0.248318         6.7571 
  48   0.0000       0.251613         6.8467 
  49   0.0000       0.266373         7.2484 
  50   0.0000       0.281711         7.6657 
  51   0.0000       0.287514         7.8236 
  52   0.0000       0.297402         8.0927 
  53   0.0000       0.322217         8.7680 
  54   0.0000       0.329838         8.9754 
  55   0.0000       0.331344         9.0163 
  56   0.0000       0.338306         9.2058 
  57   0.0000       0.350610         9.5406 
  58   0.0000       0.358994         9.7687 
  59   0.0000       0.372321        10.1314 
  60   0.0000       0.389009        10.5855 
  61   0.0000       0.405050        11.0220 
  62   0.0000       0.421998        11.4831 
  63   0.0000       0.437708        11.9106 
  64   0.0000       0.450784        12.2665 
  65   0.0000       0.476094        12.9552 
  66   0.0000       0.484471        13.1831 
  67   0.0000       0.490194        13.3388 
  68   0.0000       0.505587        13.7577 
  69   0.0000       0.513005        13.9596 
  70   0.0000       0.521283        14.1848 
  71   0.0000       0.533692        14.5225 
  72   0.0000       0.552435        15.0325 
  73   0.0000       0.558285        15.1917 
  74   0.0000       0.565557        15.3896 
  75   0.0000       0.576493        15.6872 
  76   0.0000       0.584250        15.8983 
  77   0.0000       0.591249        16.0887 
  78   0.0000       0.599217        16.3055 
  79   0.0000       0.600542        16.3416 
  80   0.0000       0.605989        16.4898 
  81   0.0000       0.620780        16.8923 
  82   0.0000       0.630457        17.1556 
  83   0.0000       0.635637        17.2966 
  84   0.0000       0.647631        17.6229 
  85   0.0000       0.655787        17.8449 
  86   0.0000       0.660831        17.9821 
  87   0.0000       0.669392        18.2151 
  88   0.0000       0.680964        18.5300 
  89   0.0000       0.691070        18.8050 
  90   0.0000       0.706373        19.2214 
  91   0.0000       0.712798        19.3962 
  92   0.0000       0.719926        19.5902 
  93   0.0000       0.737070        20.0567 
  94   0.0000       0.766900        20.8684 
  95   0.0000       0.776708        21.1353 
  96   0.0000       0.800090        21.7716 
  97   0.0000       0.807992        21.9866 
  98   0.0000       0.822068        22.3696 
  99   0.0000       0.847034        23.0490 
 100   0.0000       0.857316        23.3288 
 101   0.0000       0.872520        23.7425 
 102   0.0000       0.899969        24.4894 
 103   0.0000       0.915839        24.9212 
 104   0.0000       0.924619        25.1602 
 105   0.0000       0.954739        25.9798 
 106   0.0000       0.972767        26.4703 
 107   0.0000       0.979186        26.6450 
 108   0.0000       0.984773        26.7970 
 109   0.0000       1.013843        27.5881 
 110   0.0000       1.038797        28.2671 
 111   0.0000       1.054692        28.6996 
 112   0.0000       1.060304        28.8523 
 113   0.0000       1.080332        29.3973 
 114   0.0000       1.095438        29.8084 
 115   0.0000       1.109251        30.1843 
 116   0.0000       1.117600        30.4115 
 117   0.0000       1.138565        30.9819 
 118   0.0000       1.169875        31.8339 
 119   0.0000       1.181466        32.1493 
 120   0.0000       1.200511        32.6676 
 121   0.0000       1.226247        33.3679 
 122   0.0000       1.242953        33.8225 
 123   0.0000       1.254047        34.1244 
 124   0.0000       1.274239        34.6738 
 125   0.0000       1.290903        35.1273 
 126   0.0000       1.313814        35.7507 
 127   0.0000       1.323088        36.0030 
 128   0.0000       1.349887        36.7323 
 129   0.0000       1.366034        37.1717 
 130   0.0000       1.374753        37.4089 
 131   0.0000       1.410828        38.3906 
 132   0.0000       1.415980        38.5308 
 133   0.0000       1.435832        39.0710 
 134   0.0000       1.449321        39.4380 
 135   0.0000       1.470084        40.0030 
 136   0.0000       1.494144        40.6577 
 137   0.0000       1.521958        41.4146 
 138   0.0000       1.542512        41.9739 
 139   0.0000       1.574368        42.8407 
 140   0.0000       1.619153        44.0594 
 141   0.0000       1.644809        44.7575 
 142   0.0000       1.695960        46.1494 
 143   0.0000       1.713639        46.6305 
 144   0.0000       1.734114        47.1877 
 145   0.0000       1.754127        47.7322 
 146   0.0000       1.778935        48.4073 
 147   0.0000       1.787406        48.6378 
 148   0.0000       1.787987        48.6536 
 149   0.0000       1.816293        49.4238 
 150   0.0000       1.829516        49.7836 
 151   0.0000       1.832491        49.8646 
 152   0.0000       1.853599        50.4390 
 153   0.0000       1.856374        50.5145 
 154   0.0000       1.863192        50.7000 
 155   0.0000       1.877001        51.0758 
 156   0.0000       1.886003        51.3207 
 157   0.0000       1.890581        51.4453 
 158   0.0000       1.899558        51.6896 
 159   0.0000       1.923073        52.3295 
 160   0.0000       1.926771        52.4301 
 161   0.0000       1.958714        53.2993 
 162   0.0000       1.995272        54.2941 
 163   0.0000       2.002546        54.4921 
 164   0.0000       2.017679        54.9038 
 165   0.0000       2.038185        55.4618 
 166   0.0000       2.052623        55.8547 
 167   0.0000       2.073935        56.4346 
 168   0.0000       2.087110        56.7931 
 169   0.0000       2.116942        57.6049 
 170   0.0000       2.157312        58.7034 
 171   0.0000       2.173961        59.1565 
 172   0.0000       2.188557        59.5537 
 173   0.0000       2.215594        60.2894 
 174   0.0000       2.222768        60.4846 
 175   0.0000       2.224030        60.5189 
 176   0.0000       2.242429        61.0196 
 177   0.0000       2.266385        61.6715 
 178   0.0000       2.300377        62.5964 
 179   0.0000       2.312853        62.9359 
 180   0.0000       2.321393        63.1683 
 181   0.0000       2.325453        63.2788 
 182   0.0000       2.368101        64.4393 
 183   0.0000       2.375930        64.6523 
 184   0.0000       2.388671        64.9990 
 185   0.0000       2.403557        65.4041 
 186   0.0000       2.429463        66.1091 
 187   0.0000       2.450905        66.6925 
 188   0.0000       2.478589        67.4458 
 189   0.0000       2.493137        67.8417 
 190   0.0000       2.527543        68.7779 
 191   0.0000       2.537763        69.0560 
 192   0.0000       2.585193        70.3467 
 193   0.0000       2.611998        71.0761 
 194   0.0000       2.615529        71.1722 
 195   0.0000       2.628085        71.5138 
 196   0.0000       2.650402        72.1211 
 197   0.0000       2.657207        72.3063 
 198   0.0000       2.666259        72.5526 
 199   0.0000       2.675218        72.7964 
 200   0.0000       2.700890        73.4950 
 201   0.0000       2.704513        73.5936 
 202   0.0000       2.731078        74.3164 
 203   0.0000       2.751249        74.8653 
 204   0.0000       2.758115        75.0521 
 205   0.0000       2.779201        75.6259 
 206   0.0000       2.796995        76.1101 
 207   0.0000       2.810618        76.4808 
 208   0.0000       2.830015        77.0086 
 209   0.0000       2.844538        77.4038 
 210   0.0000       2.846647        77.4612 
 211   0.0000       2.867538        78.0297 
 212   0.0000       2.883287        78.4582 
 213   0.0000       2.892783        78.7166 
 214   0.0000       2.909331        79.1669 
 215   0.0000       2.911209        79.2180 
 216   0.0000       2.925716        79.6128 
 217   0.0000       2.933980        79.8377 
 218   0.0000       2.950766        80.2944 
 219   0.0000       2.963437        80.6392 
 220   0.0000       2.979662        81.0807 
 221   0.0000       2.987603        81.2968 
 222   0.0000       3.000361        81.6440 
 223   0.0000       3.017571        82.1123 
 224   0.0000       3.038651        82.6859 
 225   0.0000       3.057749        83.2056 
 226   0.0000       3.081369        83.8483 
 227   0.0000       3.094335        84.2011 
 228   0.0000       3.105432        84.5031 
 229   0.0000       3.117153        84.8220 
 230   0.0000       3.152802        85.7921 
 231   0.0000       3.194181        86.9181 
 232   0.0000       3.214658        87.4753 
 233   0.0000       3.241358        88.2018 
 234   0.0000       3.294665        89.6524 
 235   0.0000       3.299061        89.7720 
 236   0.0000       3.319755        90.3351 
 237   0.0000       3.344905        91.0195 
 238   0.0000       3.369554        91.6902 
 239   0.0000       3.389895        92.2437 
 240   0.0000       3.411637        92.8353 
 241   0.0000       3.422034        93.1183 
 242   0.0000       3.431201        93.3677 
 243   0.0000       3.439892        93.6042 
 244   0.0000       3.452074        93.9357 
 245   0.0000       3.475558        94.5748 
 246   0.0000       3.486036        94.8599 
 247   0.0000       3.507674        95.4487 
 248   0.0000       3.514588        95.6368 
 249   0.0000       3.530312        96.0647 
 250   0.0000       3.539364        96.3110 
 251   0.0000       3.542254        96.3896 
 252   0.0000       3.547698        96.5378 
 253   0.0000       3.566627        97.0529 
 254   0.0000       3.574086        97.2558 
 255   0.0000       3.604354        98.0795 
 256   0.0000       3.616155        98.4006 
 257   0.0000       3.640572        99.0650 
 258   0.0000       3.662364        99.6580 
 259   0.0000       3.668507        99.8252 
 260   0.0000       3.687228       100.3346 
 261   0.0000       3.705595       100.8344 
 262   0.0000       3.712964       101.0349 
 263   0.0000       3.727575       101.4325 
 264   0.0000       3.750871       102.0664 
 265   0.0000       3.756067       102.2078 
 266   0.0000       3.777075       102.7794 
 267   0.0000       3.802804       103.4795 
 268   0.0000       3.806839       103.5894 
 269   0.0000       3.825211       104.0893 
 270   0.0000       3.843858       104.5967 
 271   0.0000       3.853518       104.8596 
 272   0.0000       3.860966       105.0622 
 273   0.0000       3.872860       105.3859 
 274   0.0000       3.882756       105.6552 
 275   0.0000       3.901652       106.1694 
 276   0.0000       3.917675       106.6053 
 277   0.0000       3.951630       107.5293 
 278   0.0000       3.967982       107.9743 
 279   0.0000       3.980408       108.3124 
 280   0.0000       3.982175       108.3605 
 281   0.0000       4.020781       109.4110 
 282   0.0000       4.045927       110.0953 
 283   0.0000       4.048721       110.1713 
 284   0.0000       4.067161       110.6731 
 285   0.0000       4.109815       111.8337 
 286   0.0000       4.127906       112.3260 
 287   0.0000       4.153479       113.0219 
 288   0.0000       4.206821       114.4734 
 289   0.0000       4.235201       115.2457 
 290   0.0000       4.277252       116.3899 
 291   0.0000       4.316520       117.4585 
 292   0.0000       4.325467       117.7019 
 293   0.0000       4.353724       118.4709 
 294   0.0000       4.371662       118.9590 
 295   0.0000       4.378766       119.1523 
 296   0.0000       4.405504       119.8798 
 297   0.0000       4.428689       120.5107 
 298   0.0000       4.484510       122.0297 
 299   0.0000       4.495296       122.3232 
 300   0.0000       4.525353       123.1411 
 301   0.0000       4.561040       124.1122 
 302   0.0000       4.569911       124.3536 
 303   0.0000       4.605075       125.3105 
 304   0.0000       4.626341       125.8891 
 305   0.0000       4.662607       126.8760 
 306   0.0000       4.681371       127.3866 
 307   0.0000       4.761690       129.5722 
 308   0.0000       4.769337       129.7803 
 309   0.0000       4.788099       130.2908 
 310   0.0000       4.809615       130.8763 
 311   0.0000       4.843143       131.7886 
 312   0.0000       4.864166       132.3607 
 313   0.0000       4.885158       132.9319 
 314   0.0000       4.953012       134.7783 
 315   0.0000       4.975088       135.3790 
 316   0.0000       4.995390       135.9315 
 317   0.0000       5.059888       137.6866 
 318   0.0000       5.110001       139.0502 
 319   0.0000       5.139519       139.8534 
 320   0.0000       5.173961       140.7906 
 321   0.0000       5.210454       141.7837 
 322   0.0000       5.235077       142.4537 
 323   0.0000       5.276550       143.5822 
 324   0.0000       5.383178       146.4837 
 325   0.0000       5.411732       147.2607 
 326   0.0000       5.458486       148.5330 
 327   0.0000       5.517578       150.1409 
 328   0.0000       5.569422       151.5517 
 329   0.0000       5.583485       151.9344 
 330   0.0000       5.698732       155.0704 
 331   0.0000       5.713601       155.4750 
 332   0.0000       5.813334       158.1889 
 333   0.0000       5.889803       160.2697 
 334   0.0000       5.938254       161.5881 
 335   0.0000       5.980176       162.7289 
 336   0.0000       6.142486       167.1455 
 337   0.0000       6.208411       168.9394 
 338   0.0000       6.361877       173.1155 
 339   0.0000       6.400776       174.1740 
 340   0.0000       6.485692       176.4847 
 341   0.0000       6.762868       184.0270 
 342   0.0000       7.001599       190.5232 
 343   0.0000       7.243351       197.1016 
 344   0.0000       7.327203       199.3833 
 345   0.0000       7.476243       203.4389 
 346   0.0000       7.743509       210.7116 
 347   0.0000       7.863679       213.9816 
 348   0.0000      23.479878       638.9200 
 349   0.0000      23.495264       639.3386 
 350   0.0000      23.520843       640.0347 
 351   0.0000      23.596302       642.0880 
 352   0.0000      23.600196       642.1940 
 353   0.0000      23.811277       647.9378 
 354   0.0000      24.260001       660.1482 
 355   0.0000      33.847266       921.0309 
 356   0.0000      45.810244      1246.5601 

                    ********************************
                    * MULLIKEN POPULATION ANALYSIS *
                    ********************************

-----------------------
MULLIKEN ATOMIC CHARGES
-----------------------
   0 C :   -0.188885
   1 N :   -0.358201
   2 C :    0.205519
   3 O :   -0.398292
   4 C :    0.010831
   5 C :   -0.144355
   6 C :   -0.194972
   7 C :    0.075307
   8 C :   -0.303249
   9 H :    0.107057
  10 H :    0.105971
  11 H :    0.104483
  12 H :    0.114505
  13 H :    0.082017
  14 H :    0.086558
  15 H :    0.103815
  16 H :    0.104272
  17 H :    0.089680
  18 H :    0.070846
  19 H :    0.095137
  20 H :    0.131841
  21 H :    0.100113
Sum of atomic charges:    0.0000000

--------------------------------
MULLIKEN REDUCED ORBITAL CHARGES
--------------------------------
  0 C s       :     3.207555  s :     3.207555
      pz      :     1.047341  p :     2.878958
      px      :     1.057449
      py      :     0.774167
      dz2     :     0.014039  d :     0.095556
      dxz     :     0.009653
      dyz     :     0.024792
      dx2y2   :     0.017456
      dxy     :     0.029615
      f0      :     0.001259  f :     0.006816
      f+1     :     0.000189
      f-1     :     0.000873
      f+2     :     0.001098
      f-2     :     0.000141
      f+3     :     0.001467
      f-3     :     0.001789
  1 N s       :     3.580217  s :     3.580217
      pz      :     1.184343  p :     3.702038
      px      :     1.399786
      py      :     1.117909
      dz2     :     0.007616  d :     0.071455
      dxz     :     0.015427
      dyz     :     0.009093
      dx2y2   :     0.022011
      dxy     :     0.017309
      f0      :     0.000601  f :     0.004492
      f+1     :     0.000336
      f-1     :     0.000533
      f+2     :     0.000363
      f-2     :     0.000589
      f+3     :     0.000913
      f-3     :     0.001157
  2 C s       :     3.123768  s :     3.123768
      pz      :     0.824126  p :     2.418411
      px      :     0.694676
      py      :     0.899609
      dz2     :     0.005970  d :     0.231659
      dxz     :     0.059516
      dyz     :     0.024549
      dx2y2   :     0.089806
      dxy     :     0.051818
      f0      :     0.002519  f :     0.020643
      f+1     :     0.001423
      f-1     :     0.001248
      f+2     :     0.001620
      f-2     :     0.003001
      f+3     :     0.007258
      f-3     :     0.003574
  3 O s       :     3.772384  s :     3.772384
      pz      :     1.629015  p :     4.583256
      px      :     1.277008
      py      :     1.677232
      dz2     :     0.006283  d :     0.040501
      dxz     :     0.008212
      dyz     :     0.005344
      dx2y2   :     0.006494
      dxy     :     0.014167
      f0      :     0.000251  f :     0.002152
      f+1     :     0.000373
      f-1     :     0.000127
      f+2     :     0.000275
      f-2     :     0.000308
      f+3     :     0.000334
      f-3     :     0.000484
  4 C s       :     3.171254  s :     3.171254
      pz      :     0.866122  p :     2.663326
      px      :     0.856415
      py      :     0.940788
      dz2     :     0.041465  d :     0.143451
      dxz     :     0.020858
      dyz     :     0.021553
      dx2y2   :     0.026173
      dxy     :     0.033403
      f0      :     0.001412  f :     0.011138
      f+1     :     0.002312
      f-1     :     0.001013
      f+2     :     0.001789
      f-2     :     0.001338
      f+3     :     0.001424
      f-3     :     0.001849
  5 C s       :     3.118572  s :     3.118572
      pz      :     1.036344  p :     2.915007
      px      :     0.963844
      py      :     0.914820
      dz2     :     0.017869  d :     0.104265
      dxz     :     0.025125
      dyz     :     0.012595
      dx2y2   :     0.026928
      dxy     :     0.021748
      f0      :     0.000752  f :     0.006510
      f+1     :     0.001111
      f-1     :     0.000698
      f+2     :     0.000688
      f-2     :     0.000422
      f+3     :     0.001415
      f-3     :     0.001423
  6 C s       :     3.149868  s :     3.149868
      pz      :     0.976901  p :     2.932238
      px      :     0.932220
      py      :     1.023117
      dz2     :     0.029227  d :     0.106329
      dxz     :     0.025284
      dyz     :     0.006491
      dx2y2   :     0.028079
      dxy     :     0.017247
      f0      :     0.000936  f :     0.006536
      f+1     :     0.001327
      f-1     :     0.000590
      f+2     :     0.000629
      f-2     :     0.000773
      f+3     :     0.000928
      f-3     :     0.001353
  7 C s       :     2.982544  s :     2.982544
      pz      :     0.943276  p :     2.792694
      px      :     0.975327
      py      :     0.874091
      dz2     :     0.031635  d :     0.140977
      dxz     :     0.031513
      dyz     :     0.015297
      dx2y2   :     0.039024
      dxy     :     0.023508
      f0      :     0.000996  f :     0.008478
      f+1     :     0.001385
      f-1     :     0.000831
      f+2     :     0.001075
      f-2     :     0.000771
      f+3     :     0.001590
      f-3     :     0.001831
  8 C s       :     3.216904  s :     3.216904
      pz      :     1.073132  p :     3.008437
      px      :     0.934057
      py      :     1.001248
      dz2     :     0.014156  d :     0.073310
      dxz     :     0.022861
      dyz     :     0.003910
      dx2y2   :     0.021548
      dxy     :     0.010835
      f0      :     0.000498  f :     0.004598
      f+1     :     0.001033
      f-1     :     0.000534
      f+2     :     0.000281
      f-2     :     0.000372
      f+3     :     0.000639
      f-3     :     0.001241
  9 H s       :     0.871675  s :     0.871675
      pz      :     0.006407  p :     0.021269
      px      :     0.010582
      py      :     0.004279
 10 H s       :     0.872792  s :     0.872792
      pz      :     0.004806  p :     0.021237
      px      :     0.011563
      py      :     0.004867
 11 H s       :     0.874153  s :     0.874153
      pz      :     0.013375  p :     0.021364
      px      :     0.003832
      py      :     0.004157
 12 H s       :     0.863868  s :     0.863868
      pz      :     0.003366  p :     0.021627
      px      :     0.011617
      py      :     0.006643
 13 H s       :     0.896982  s :     0.896982
      pz      :     0.013732  p :     0.021001
      px      :     0.003064
      py      :     0.004206
 14 H s       :     0.891423  s :     0.891423
      pz      :     0.012475  p :     0.022019
      px      :     0.005414
      py      :     0.004129
 15 H s       :     0.874126  s :     0.874126
      pz      :     0.008372  p :     0.022059
      px      :     0.008856
      py      :     0.004832
 16 H s       :     0.873674  s :     0.873674
      pz      :     0.003625  p :     0.022054
      px      :     0.003659
      py      :     0.014770
 17 H s       :     0.888516  s :     0.888516
      pz      :     0.013278  p :     0.021804
      px      :     0.004840
      py      :     0.003686
 18 H s       :     0.906393  s :     0.906393
      pz      :     0.013433  p :     0.022761
      px      :     0.004992
      py      :     0.004336
 19 H s       :     0.883033  s :     0.883033
      pz      :     0.012083  p :     0.021830
      px      :     0.005539
      py      :     0.004208
 20 H s       :     0.845773  s :     0.845773
      pz      :     0.008658  p :     0.022386
      px      :     0.008424
      py      :     0.005305
 21 H s       :     0.878513  s :     0.878513
      pz      :     0.003624  p :     0.021373
      px      :     0.003539
      py      :     0.014211


                     *******************************
                     * LOEWDIN POPULATION ANALYSIS *
                     *******************************

----------------------
LOEWDIN ATOMIC CHARGES
----------------------
   0 C :   -0.302131
   1 N :    0.047421
   2 C :   -0.297066
   3 O :    0.174782
   4 C :   -0.251741
   5 C :   -0.246966
   6 C :   -0.217770
   7 C :   -0.225618
   8 C :   -0.252380
   9 H :    0.102927
  10 H :    0.100056
  11 H :    0.106072
  12 H :    0.121991
  13 H :    0.117064
  14 H :    0.130453
  15 H :    0.130899
  16 H :    0.129398
  17 H :    0.131327
  18 H :    0.155269
  19 H :    0.115464
  20 H :    0.120644
  21 H :    0.109904

-------------------------------
LOEWDIN REDUCED ORBITAL CHARGES
-------------------------------
  0 C s       :     2.837733  s :     2.837733
      pz      :     1.078477  p :     3.065079
      px      :     1.072054
      py      :     0.914548
      dz2     :     0.054259  d :     0.358842
      dxz     :     0.029988
      dyz     :     0.084972
      dx2y2   :     0.077406
      dxy     :     0.112217
      f0      :     0.005441  f :     0.040477
      f+1     :     0.000885
      f-1     :     0.005286
      f+2     :     0.006788
      f-2     :     0.002836
      f+3     :     0.011169
      f-3     :     0.008072
  1 N s       :     3.051732  s :     3.051732
      pz      :     1.084276  p :     3.678128
      px      :     1.413061
      py      :     1.180791
      dz2     :     0.018708  d :     0.205952
      dxz     :     0.020345
      dyz     :     0.036668
      dx2y2   :     0.067967
      dxy     :     0.062263
      f0      :     0.001245  f :     0.016768
      f+1     :     0.001237
      f-1     :     0.001481
      f+2     :     0.002220
      f-2     :     0.001310
      f+3     :     0.005450
      f-3     :     0.003824
  2 C s       :     2.730664  s :     2.730664
      pz      :     0.763742  p :     2.636716
      px      :     0.899311
      py      :     0.973663
      dz2     :     0.055014  d :     0.810848
      dxz     :     0.156192
      dyz     :     0.078972
      dx2y2   :     0.293063
      dxy     :     0.227607
      f0      :     0.008255  f :     0.118838
      f+1     :     0.009996
      f-1     :     0.005768
      f+2     :     0.009771
      f-2     :     0.017333
      f+3     :     0.046665
      f-3     :     0.021050
  3 O s       :     3.254055  s :     3.254055
      pz      :     1.557487  p :     4.464416
      px      :     1.306352
      py      :     1.600578
      dz2     :     0.016369  d :     0.100835
      dxz     :     0.023261
      dyz     :     0.008608
      dx2y2   :     0.023344
      dxy     :     0.029251
      f0      :     0.000614  f :     0.005912
      f+1     :     0.000921
      f-1     :     0.000442
      f+2     :     0.000735
      f-2     :     0.000867
      f+3     :     0.001346
      f-3     :     0.000988
  4 C s       :     2.792130  s :     2.792130
      pz      :     0.936493  p :     2.854272
      px      :     0.896682
      py      :     1.021097
      dz2     :     0.141697  d :     0.535118
      dxz     :     0.078962
      dyz     :     0.089218
      dx2y2   :     0.092085
      dxy     :     0.133155
      f0      :     0.006828  f :     0.070222
      f+1     :     0.013079
      f-1     :     0.006636
      f+2     :     0.012603
      f-2     :     0.012296
      f+3     :     0.009113
      f-3     :     0.009666
  5 C s       :     2.773967  s :     2.773967
      pz      :     1.014578  p :     3.032289
      px      :     1.004817
      py      :     1.012893
      dz2     :     0.060715  d :     0.401918
      dxz     :     0.094064
      dyz     :     0.056029
      dx2y2   :     0.102626
      dxy     :     0.088485
      f0      :     0.004476  f :     0.038793
      f+1     :     0.003896
      f-1     :     0.003859
      f+2     :     0.005413
      f-2     :     0.004416
      f+3     :     0.010182
      f-3     :     0.006552
  6 C s       :     2.769116  s :     2.769116
      pz      :     1.005646  p :     3.004437
      px      :     0.997215
      py      :     1.001576
      dz2     :     0.107341  d :     0.405858
      dxz     :     0.092217
      dyz     :     0.024433
      dx2y2   :     0.117094
      dxy     :     0.064772
      f0      :     0.004675  f :     0.038359
      f+1     :     0.006224
      f-1     :     0.003788
      f+2     :     0.004839
      f-2     :     0.006377
      f+3     :     0.006486
      f-3     :     0.005970
  7 C s       :     2.724298  s :     2.724298
      pz      :     0.979320  p :     2.940592
      px      :     0.998753
      py      :     0.962519
      dz2     :     0.106246  d :     0.510049
      dxz     :     0.102887
      dyz     :     0.064909
      dx2y2   :     0.137476
      dxy     :     0.098530
      f0      :     0.005959  f :     0.050680
      f+1     :     0.006823
      f-1     :     0.005265
      f+2     :     0.007524
      f-2     :     0.006323
      f+3     :     0.010469
      f-3     :     0.008317
  8 C s       :     2.821966  s :     2.821966
      pz      :     1.066438  p :     3.128589
      px      :     1.022231
      py      :     1.039920
      dz2     :     0.049249  d :     0.276871
      dxz     :     0.085407
      dyz     :     0.012211
      dx2y2   :     0.085577
      dxy     :     0.044426
      f0      :     0.002566  f :     0.024955
      f+1     :     0.003542
      f-1     :     0.002674
      f+2     :     0.002217
      f-2     :     0.004173
      f+3     :     0.004577
      f-3     :     0.005204
  9 H s       :     0.838690  s :     0.838690
      pz      :     0.018860  p :     0.058384
      px      :     0.028121
      py      :     0.011403
 10 H s       :     0.838802  s :     0.838802
      pz      :     0.015663  p :     0.061142
      px      :     0.031827
      py      :     0.013652
 11 H s       :     0.835168  s :     0.835168
      pz      :     0.034508  p :     0.058761
      px      :     0.012877
      py      :     0.011375
 12 H s       :     0.821208  s :     0.821208
      pz      :     0.011367  p :     0.056801
      px      :     0.027997
      py      :     0.017437
 13 H s       :     0.826517  s :     0.826517
      pz      :     0.033192  p :     0.056418
      px      :     0.010704
      py      :     0.012523
 14 H s       :     0.812095  s :     0.812095
      pz      :     0.030432  p :     0.057452
      px      :     0.014365
      py      :     0.012655
 15 H s       :     0.811557  s :     0.811557
      pz      :     0.022533  p :     0.057544
      px      :     0.021188
      py      :     0.013823
 16 H s       :     0.812881  s :     0.812881
      pz      :     0.012202  p :     0.057721
      px      :     0.011756
      py      :     0.033763
 17 H s       :     0.811489  s :     0.811489
      pz      :     0.030672  p :     0.057184
      px      :     0.014114
      py      :     0.012398
 18 H s       :     0.789175  s :     0.789175
      pz      :     0.028824  p :     0.055556
      px      :     0.014095
      py      :     0.012637
 19 H s       :     0.824831  s :     0.824831
      pz      :     0.031240  p :     0.059705
      px      :     0.015033
      py      :     0.013432
 20 H s       :     0.817821  s :     0.817821
      pz      :     0.024219  p :     0.061535
      px      :     0.021516
      py      :     0.015801
 21 H s       :     0.831001  s :     0.831001
      pz      :     0.012702  p :     0.059095
      px      :     0.011785
      py      :     0.034608


                      *****************************
                      * MAYER POPULATION ANALYSIS *
                      *****************************

  NA   - Mulliken gross atomic population
  ZA   - Total nuclear charge
  QA   - Mulliken gross atomic charge
  VA   - Mayer's total valence
  BVA  - Mayer's bonded valence
  FA   - Mayer's free valence

  ATOM       NA         ZA         QA         VA         BVA        FA
  0 C      6.1889     6.0000    -0.1889     3.9022     3.9022     0.0000
  1 N      7.3582     7.0000    -0.3582     2.8645     2.8645     0.0000
  2 C      5.7945     6.0000     0.2055     4.1409     4.1409     0.0000
  3 O      8.3983     8.0000    -0.3983     1.8829     1.8829    -0.0000
  4 C      5.9892     6.0000     0.0108     3.8980     3.8980    -0.0000
  5 C      6.1444     6.0000    -0.1444     3.9260     3.9260    -0.0000
  6 C      6.1950     6.0000    -0.1950     3.8817     3.8817    -0.0000
  7 C      5.9247     6.0000     0.0753     3.8152     3.8152     0.0000
  8 C      6.3032     6.0000    -0.3032     3.9277     3.9277     0.0000
  9 H      0.8929     1.0000     0.1071     0.9618     0.9618     0.0000
 10 H      0.8940     1.0000     0.1060     0.9719     0.9719     0.0000
 11 H      0.8955     1.0000     0.1045     0.9664     0.9664    -0.0000
 12 H      0.8855     1.0000     0.1145     0.9623     0.9623    -0.0000
 13 H      0.9180     1.0000     0.0820     0.9737     0.9737    -0.0000
 14 H      0.9134     1.0000     0.0866     0.9825     0.9825    -0.0000
 15 H      0.8962     1.0000     0.1038     0.9735     0.9735    -0.0000
 16 H      0.8957     1.0000     0.1043     0.9757     0.9757    -0.0000
 17 H      0.9103     1.0000     0.0897     0.9856     0.9856    -0.0000
 18 H      0.9292     1.0000     0.0708     0.9779     0.9779     0.0000
 19 H      0.9049     1.0000     0.0951     0.9861     0.9861     0.0000
 20 H      0.8682     1.0000     0.1318     0.9843     0.9843    -0.0000
 21 H      0.8999     1.0000     0.1001     0.9640     0.9640     0.0000

  Mayer bond orders larger than 0.1
B(  0-C ,  1-N ) :   0.9050 B(  0-C ,  9-H ) :   0.9896 B(  0-C , 10-H ) :   0.9848 
B(  0-C , 11-H ) :   0.9834 B(  1-N ,  2-C ) :   2.0381 B(  2-C ,  3-O ) :   1.0352 
B(  2-C ,  7-C ) :   0.9721 B(  3-O ,  4-C ) :   0.8797 B(  4-C ,  5-C ) :   1.0029 
B(  4-C , 12-H ) :   0.9850 B(  4-C , 13-H ) :   0.9881 B(  5-C ,  6-C ) :   0.9636 
B(  5-C , 14-H ) :   0.9808 B(  5-C , 15-H ) :   0.9812 B(  6-C ,  7-C ) :   0.9719 
B(  6-C , 16-H ) :   0.9859 B(  6-C , 17-H ) :   0.9840 B(  7-C ,  8-C ) :   0.9757 
B(  7-C , 18-H ) :   0.9714 B(  8-C , 19-H ) :   0.9795 B(  8-C , 20-H ) :   0.9874 
B(  8-C , 21-H ) :   0.9870 

-------
TIMINGS
-------

Total SCF time: 0 days 0 hours 2 min 48 sec 

Total time                  ....     168.450 sec
Sum of individual times     ....     173.383 sec  (102.9%)

Fock matrix formation       ....     166.729 sec  ( 99.0%)
Diagonalization             ....       0.803 sec  (  0.5%)
Density matrix formation    ....       0.049 sec  (  0.0%)
Population analysis         ....       0.189 sec  (  0.1%)
Initial guess               ....       3.465 sec  (  2.1%)
Orbital Transformation      ....       0.000 sec  (  0.0%)
Orbital Orthonormalization  ....       0.000 sec  (  0.0%)
DIIS solution               ....       0.229 sec  (  0.1%)
SOSCF solution              ....       0.300 sec  (  0.2%)

   <<< Auxbasis replaced with dsgdb9nsd_097245.AUXC.tmp (Dim=879) >>> 


------------------------------------------------------------------------------
                              ORCA MP2 CALCULATION
------------------------------------------------------------------------------

Freezing NCore=18 chemical core electrons

   <<< Use J-auxbasis for calculation of Separable RI-J derivative contributions dsgdb9nsd_097245.AUXJ.tmp (Dim=913) >>> 


---------------------
RI-MP2 ENERGY+DENSITY
---------------------
Dimension of the basis                    ...  357
Memory devoted to MP2                     ... 2000 MB   
Data format for buffers                   ... DOUBLE
Compression type for matrix containers    ... UNCOMPRESSED
Overall scaling of the MP2 energy         ...   1.000e+00 Eh
Calculating two index integrals           ... done (    0.019 sec)
Cholesky decomposition of V**-1           ... done (    0.136 sec)

-----------------
RI-TRANSFORMATION (AUX index driven)
-----------------

Dimension of the orbital-basis         ... 357
Dimension of the aux-basis             ... 879
Transformation of internal MOs         ...    0-  34
Transformation of internal/external MOs...    0-  34 to   35- 356
Number Format for Storage              ... Double (8 Byte)
Integral mode                          ... Direct

First Phase: integral generation and transformation of MO indices
  Aux angular momentum 0               ... done (    1.038 sec)
  Aux angular momentum 1               ... done (    1.428 sec)
  Aux angular momentum 2               ... done (    1.403 sec)
  Aux angular momentum 3               ... done (    0.996 sec)
  Aux angular momentum 4               ... done (    0.452 sec)
Closing buffer VIJ ( 0.00 GB; CompressionRatio= 1.94)
Closing buffer VIA ( 0.07 GB; CompressionRatio= 1.00)
  Phase 1 completed in     5.416 sec
Second Phase: sorting and transformation of aux index

IJ-Transformation
Memory available                       ... 1985 MB 
Max. # MO pairs treated in a batch     ... 35    
# of internal orbitals                 ... 35
# batches for internal orbitals        ... 1
Closing buffer IJV ( 0.00 GB; CompressionRatio= 1.00)
(ij|v) transformation done in     0.232 sec

IA-Transformation
Memory available                       ... 1985 MB 
Max. # MO pairs treated in a batch     ... 35    
# of internal orbitals                 ... 35
# batches for internal orbitals        ... 1
Closing buffer IAV ( 0.07 GB; CompressionRatio= 1.00)
(ia|v) transformation done in     1.762 sec

  Phase 2 completed in     2.018 sec
RI-Integral transformation completed in     7.434 sec
Opening buffers                              ... done
Frozen core precalculation                   ... done

Starting loop over batches of integrals:

Operator 0  - window                       ... (  9- 34)x( 35-356)
Operator 0  - Memory available             ...  2000 MB
Operator 0  - Memory needed per MO         ...   4.3 MB
Operator 0  - Number of orbitals per batch ... 26
Operator 0  - Number of batches            ... 1

OPERATOR  0   PASS   0:  MOs     9 ...   34
  Reading integrals       ... ok
  Internal MO  11
  Internal MO  14
  Internal MO  17
  Internal MO  20
  Internal MO  23
  Internal MO  26
  Internal MO  29
  Internal MO  32
Time spent in pair loops =    48.891 sec
Deleting buffer (Ka|jb)[aa] ...done

-----------------------------------------------
 RI-MP2 CORRELATION ENERGY:     -1.584767795 Eh
-----------------------------------------------


---------------------
MP2 DENSITY FORMATION
---------------------

Completing the external part of the density      ... done
Storing the unrelaxed density                    ... done

Calculating G(D)                                 ... done
Completing the Lagrangian                        ... done
Solving the Z-vector equations                   ... 

------------------------------------------------------------------------------
                           ORCA CP-SCF CALCULATION
------------------------------------------------------------------------------

Input orbitals are from        ... dsgdb9nsd_097245.gbw
Input Perturbation             ... dsgdb9nsd_097245.pin.tmp
Wavefunction output            ... dsgdb9nsd_097245.pout.tmp
Perturbation mode              ... Real perturbation
Solver                         ... POPLE
Max. number of iterations      ... 128
Convergence tolerance          ... 1.000e-08
Integral handling              ... Direct
Number of perturbations        ... 1
Number of operators            ... 1
Orbital ranges used for CP-SCF:
 Operator 0:  Orbitals   0... 34  to  35...356
Variables per vector in CP-SCF ... 11270
Number of vectors sought       ... 1
     CP-SCF ITERATION   0: 
     CP-SCF ITERATION   1:      0.001136325
     CP-SCF ITERATION   2:      0.000185148
     CP-SCF ITERATION   3:      0.000013070
     CP-SCF ITERATION   4:      0.000001800
     CP-SCF ITERATION   5:      0.000000254
     CP-SCF ITERATION   6:      0.000000034
     CP-SCF ITERATION   7:      0.000000005
done
Finalizing the relaxed density                   ... done
Transforming P to the AO basis                   ... done
Storing the relaxed density                      ... done

                *********************************************
                * UNRELAXED MP2 DENSITY POPULATION ANALYSIS *
                *********************************************

------------------------------------------------------------------------------
                           ORCA POPULATION ANALYSIS
------------------------------------------------------------------------------
Input electron density              ... dsgdb9nsd_097245.pmp2ur
BaseName (.gbw .S,...)              ... dsgdb9nsd_097245

                    ********************************
                    * MULLIKEN POPULATION ANALYSIS *
                    ********************************

-----------------------
MULLIKEN ATOMIC CHARGES
-----------------------
   0 C :   -0.200371
   1 N :   -0.341836
   2 C :    0.184841
   3 O :   -0.378934
   4 C :   -0.004377
   5 C :   -0.152928
   6 C :   -0.201822
   7 C :    0.065625
   8 C :   -0.312170
   9 H :    0.110184
  10 H :    0.108178
  11 H :    0.107719
  12 H :    0.118063
  13 H :    0.085347
  14 H :    0.090420
  15 H :    0.107659
  16 H :    0.108237
  17 H :    0.093533
  18 H :    0.075766
  19 H :    0.098496
  20 H :    0.134865
  21 H :    0.103505
Sum of atomic charges:    0.0000000

--------------------------------
MULLIKEN REDUCED ORBITAL CHARGES
--------------------------------
  0 C s       :     3.204890  s :     3.204890
      pz      :     1.041986  p :     2.867019
      px      :     1.051965
      py      :     0.773068
      dz2     :     0.018583  d :     0.118104
      dxz     :     0.014934
      dyz     :     0.029484
      dx2y2   :     0.020952
      dxy     :     0.034151
      f0      :     0.001739  f :     0.010358
      f+1     :     0.000744
      f-1     :     0.001353
      f+2     :     0.001613
      f-2     :     0.000670
      f+3     :     0.002025
      f-3     :     0.002214
  1 N s       :     3.571792  s :     3.571792
      pz      :     1.171473  p :     3.661986
      px      :     1.383906
      py      :     1.106608
      dz2     :     0.013129  d :     0.100332
      dxz     :     0.020834
      dyz     :     0.015006
      dx2y2   :     0.028016
      dxy     :     0.023348
      f0      :     0.001000  f :     0.007726
      f+1     :     0.000761
      f-1     :     0.000914
      f+2     :     0.000858
      f-2     :     0.001029
      f+3     :     0.001503
      f-3     :     0.001660
  2 C s       :     3.124712  s :     3.124712
      pz      :     0.828524  p :     2.419540
      px      :     0.696981
      py      :     0.894035
      dz2     :     0.009440  d :     0.246805
      dxz     :     0.062055
      dyz     :     0.028684
      dx2y2   :     0.091933
      dxy     :     0.054693
      f0      :     0.002828  f :     0.024101
      f+1     :     0.001777
      f-1     :     0.001602
      f+2     :     0.002264
      f-2     :     0.003446
      f+3     :     0.008055
      f-3     :     0.004129
  3 O s       :     3.766795  s :     3.766795
      pz      :     1.611978  p :     4.536891
      px      :     1.264577
      py      :     1.660337
      dz2     :     0.012192  d :     0.070273
      dxz     :     0.014370
      dyz     :     0.011200
      dx2y2   :     0.012672
      dxy     :     0.019839
      f0      :     0.000647  f :     0.004975
      f+1     :     0.000774
      f-1     :     0.000518
      f+2     :     0.000671
      f-2     :     0.000721
      f+3     :     0.000755
      f-3     :     0.000889
  4 C s       :     3.169547  s :     3.169547
      pz      :     0.864458  p :     2.656160
      px      :     0.856348
      py      :     0.935354
      dz2     :     0.045326  d :     0.163931
      dxz     :     0.024716
      dyz     :     0.026374
      dx2y2   :     0.029605
      dxy     :     0.037910
      f0      :     0.001955  f :     0.014739
      f+1     :     0.002791
      f-1     :     0.001529
      f+2     :     0.002293
      f-2     :     0.001825
      f+3     :     0.002032
      f-3     :     0.002314
  5 C s       :     3.116163  s :     3.116163
      pz      :     1.030863  p :     2.897249
      px      :     0.957370
      py      :     0.909015
      dz2     :     0.022736  d :     0.129095
      dxz     :     0.030580
      dyz     :     0.018539
      dx2y2   :     0.030677
      dxy     :     0.026563
      f0      :     0.001341  f :     0.010422
      f+1     :     0.001629
      f-1     :     0.001205
      f+2     :     0.001293
      f-2     :     0.001002
      f+3     :     0.002038
      f-3     :     0.001914
  6 C s       :     3.146451  s :     3.146451
      pz      :     0.970766  p :     2.913844
      px      :     0.925728
      py      :     1.017350
      dz2     :     0.034069  d :     0.131099
      dxz     :     0.029645
      dyz     :     0.012442
      dx2y2   :     0.033012
      dxy     :     0.021931
      f0      :     0.001509  f :     0.010428
      f+1     :     0.001858
      f-1     :     0.001132
      f+2     :     0.001220
      f-2     :     0.001298
      f+3     :     0.001558
      f-3     :     0.001853
  7 C s       :     2.981488  s :     2.981488
      pz      :     0.937758  p :     2.774314
      px      :     0.967596
      py      :     0.868959
      dz2     :     0.036560  d :     0.165946
      dxz     :     0.036257
      dyz     :     0.021645
      dx2y2   :     0.042625
      dxy     :     0.028857
      f0      :     0.001618  f :     0.012628
      f+1     :     0.001944
      f-1     :     0.001375
      f+2     :     0.001735
      f-2     :     0.001346
      f+3     :     0.002284
      f-3     :     0.002326
  8 C s       :     3.214024  s :     3.214024
      pz      :     1.066985  p :     2.991161
      px      :     0.928098
      py      :     0.996078
      dz2     :     0.019113  d :     0.098712
      dxz     :     0.027873
      dyz     :     0.009958
      dx2y2   :     0.026037
      dxy     :     0.015731
      f0      :     0.001055  f :     0.008273
      f+1     :     0.001526
      f-1     :     0.001024
      f+2     :     0.000849
      f-2     :     0.000905
      f+3     :     0.001219
      f-3     :     0.001696
  9 H s       :     0.865389  s :     0.865389
      pz      :     0.007459  p :     0.024427
      px      :     0.011533
      py      :     0.005435
 10 H s       :     0.867399  s :     0.867399
      pz      :     0.005914  p :     0.024423
      px      :     0.012502
      py      :     0.006008
 11 H s       :     0.867779  s :     0.867779
      pz      :     0.014254  p :     0.024502
      px      :     0.004951
      py      :     0.005297
 12 H s       :     0.857218  s :     0.857218
      pz      :     0.004477  p :     0.024718
      px      :     0.012549
      py      :     0.007693
 13 H s       :     0.890454  s :     0.890454
      pz      :     0.014640  p :     0.024199
      px      :     0.004230
      py      :     0.005329
 14 H s       :     0.884419  s :     0.884419
      pz      :     0.013424  p :     0.025161
      px      :     0.006495
      py      :     0.005242
 15 H s       :     0.867161  s :     0.867161
      pz      :     0.009386  p :     0.025180
      px      :     0.009870
      py      :     0.005924
 16 H s       :     0.866546  s :     0.866546
      pz      :     0.004750  p :     0.025217
      px      :     0.004798
      py      :     0.015669
 17 H s       :     0.881468  s :     0.881468
      pz      :     0.014211  p :     0.024999
      px      :     0.005953
      py      :     0.004834
 18 H s       :     0.898336  s :     0.898336
      pz      :     0.014347  p :     0.025898
      px      :     0.006099
      py      :     0.005452
 19 H s       :     0.876543  s :     0.876543
      pz      :     0.013030  p :     0.024961
      px      :     0.006614
      py      :     0.005316
 20 H s       :     0.839705  s :     0.839705
      pz      :     0.009635  p :     0.025430
      px      :     0.009423
      py      :     0.006372
 21 H s       :     0.871932  s :     0.871932
      pz      :     0.004758  p :     0.024563
      px      :     0.004692
      py      :     0.015112


                     *******************************
                     * LOEWDIN POPULATION ANALYSIS *
                     *******************************

----------------------
LOEWDIN ATOMIC CHARGES
----------------------
   0 C :   -0.308853
   1 N :    0.054739
   2 C :   -0.306593
   3 O :    0.187236
   4 C :   -0.260208
   5 C :   -0.251223
   6 C :   -0.221635
   7 C :   -0.228327
   8 C :   -0.258883
   9 H :    0.104823
  10 H :    0.101494
  11 H :    0.108075
  12 H :    0.123640
  13 H :    0.118484
  14 H :    0.132135
  15 H :    0.132600
  16 H :    0.131161
  17 H :    0.133044
  18 H :    0.156743
  19 H :    0.117335
  20 H :    0.122470
  21 H :    0.111741

-------------------------------
LOEWDIN REDUCED ORBITAL CHARGES
-------------------------------
  0 C s       :     2.836345  s :     2.836345
      pz      :     1.070964  p :     3.045088
      px      :     1.064920
      py      :     0.909204
      dz2     :     0.059555  d :     0.381619
      dxz     :     0.035604
      dyz     :     0.088397
      dx2y2   :     0.082397
      dxy     :     0.115666
      f0      :     0.006189  f :     0.045801
      f+1     :     0.001518
      f-1     :     0.006176
      f+2     :     0.007468
      f-2     :     0.003544
      f+3     :     0.011739
      f-3     :     0.009166
  1 N s       :     3.047608  s :     3.047608
      pz      :     1.073082  p :     3.638132
      px      :     1.396972
      py      :     1.168078
      dz2     :     0.025215  d :     0.238128
      dxz     :     0.027165
      dyz     :     0.042028
      dx2y2   :     0.075029
      dxy     :     0.068691
      f0      :     0.001843  f :     0.021393
      f+1     :     0.001828
      f-1     :     0.002019
      f+2     :     0.002772
      f-2     :     0.001937
      f+3     :     0.006194
      f-3     :     0.004801
  2 C s       :     2.729583  s :     2.729583
      pz      :     0.767117  p :     2.629132
      px      :     0.896080
      py      :     0.965934
      dz2     :     0.060695  d :     0.822116
      dxz     :     0.156662
      dyz     :     0.082365
      dx2y2   :     0.292561
      dxy     :     0.229832
      f0      :     0.009143  f :     0.125762
      f+1     :     0.010952
      f-1     :     0.006533
      f+2     :     0.010657
      f-2     :     0.017823
      f+3     :     0.047199
      f-3     :     0.023455
  3 O s       :     3.251526  s :     3.251526
      pz      :     1.541602  p :     4.419553
      px      :     1.293532
      py      :     1.584419
      dz2     :     0.022488  d :     0.132496
      dxz     :     0.029896
      dyz     :     0.014820
      dx2y2   :     0.029631
      dxy     :     0.035660
      f0      :     0.001049  f :     0.009189
      f+1     :     0.001411
      f-1     :     0.000856
      f+2     :     0.001173
      f-2     :     0.001354
      f+3     :     0.001814
      f-3     :     0.001532
  4 C s       :     2.791101  s :     2.791101
      pz      :     0.932333  p :     2.838484
      px      :     0.893444
      py      :     1.012707
      dz2     :     0.145252  d :     0.554885
      dxz     :     0.083235
      dyz     :     0.093266
      dx2y2   :     0.096501
      dxy     :     0.136630
      f0      :     0.007703  f :     0.075738
      f+1     :     0.013748
      f-1     :     0.007487
      f+2     :     0.013221
      f-2     :     0.013011
      f+3     :     0.009856
      f-3     :     0.010712
  5 C s       :     2.772337  s :     2.772337
      pz      :     1.007328  p :     3.006462
      px      :     0.995768
      py      :     1.003366
      dz2     :     0.066392  d :     0.427609
      dxz     :     0.098857
      dyz     :     0.061152
      dx2y2   :     0.107644
      dxy     :     0.093564
      f0      :     0.005248  f :     0.044815
      f+1     :     0.004832
      f-1     :     0.004696
      f+2     :     0.006184
      f-2     :     0.005151
      f+3     :     0.011003
      f-3     :     0.007702
  6 C s       :     2.767452  s :     2.767452
      pz      :     0.997494  p :     2.978601
      px      :     0.987398
      py      :     0.993710
      dz2     :     0.111921  d :     0.431215
      dxz     :     0.097095
      dyz     :     0.030386
      dx2y2   :     0.121554
      dxy     :     0.070259
      f0      :     0.005520  f :     0.044366
      f+1     :     0.007210
      f-1     :     0.004553
      f+2     :     0.005622
      f-2     :     0.007150
      f+3     :     0.007262
      f-3     :     0.007049
  7 C s       :     2.722846  s :     2.722846
      pz      :     0.970852  p :     2.912993
      px      :     0.988561
      py      :     0.953580
      dz2     :     0.111102  d :     0.535054
      dxz     :     0.107802
      dyz     :     0.070789
      dx2y2   :     0.141799
      dxy     :     0.103563
      f0      :     0.006867  f :     0.057433
      f+1     :     0.007829
      f-1     :     0.006160
      f+2     :     0.008463
      f-2     :     0.007144
      f+3     :     0.011410
      f-3     :     0.009559
  8 C s       :     2.820217  s :     2.820217
      pz      :     1.058751  p :     3.104236
      px      :     1.013133
      py      :     1.032352
      dz2     :     0.054959  d :     0.304071
      dxz     :     0.090152
      dyz     :     0.018199
      dx2y2   :     0.090689
      dxy     :     0.050072
      f0      :     0.003273  f :     0.030358
      f+1     :     0.004444
      f-1     :     0.003381
      f+2     :     0.002919
      f-2     :     0.004854
      f+3     :     0.005302
      f-3     :     0.006185
  9 H s       :     0.831542  s :     0.831542
      pz      :     0.020444  p :     0.063635
      px      :     0.030198
      py      :     0.012993
 10 H s       :     0.831945  s :     0.831945
[...]
      f-3     :     0.002087
  5 C s       :     3.151137  s :     3.151137
      pz      :     1.046970  p :     2.931365
      px      :     0.967810
      py      :     0.916585
      dz2     :     0.018934  d :     0.117153
      dxz     :     0.027548
      dyz     :     0.018708
      dx2y2   :     0.026772
      dxy     :     0.025191
      f0      :     0.001314  f :     0.009878
      f+1     :     0.001513
      f-1     :     0.001087
      f+2     :     0.001286
      f-2     :     0.000982
      f+3     :     0.002035
      f-3     :     0.001660
  6 C s       :     3.170643  s :     3.170643
      pz      :     0.985446  p :     2.934436
      px      :     0.922219
      py      :     1.026772
      dz2     :     0.030578  d :     0.119373
      dxz     :     0.026893
      dyz     :     0.011443
      dx2y2   :     0.030953
      dxy     :     0.019507
      f0      :     0.001466  f :     0.009899
      f+1     :     0.001725
      f-1     :     0.001078
      f+2     :     0.001195
      f-2     :     0.001221
      f+3     :     0.001554
      f-3     :     0.001660
  7 C s       :     3.044521  s :     3.044521
      pz      :     0.949338  p :     2.794388
      px      :     0.958379
      py      :     0.886671
      dz2     :     0.033104  d :     0.154711
      dxz     :     0.032983
      dyz     :     0.022469
      dx2y2   :     0.037664
      dxy     :     0.028490
      f0      :     0.001614  f :     0.011984
      f+1     :     0.001795
      f-1     :     0.001253
      f+2     :     0.001741
      f-2     :     0.001278
      f+3     :     0.002322
      f-3     :     0.001982
  8 C s       :     3.229031  s :     3.229031
      pz      :     1.086244  p :     3.045972
      px      :     0.938300
      py      :     1.021428
      dz2     :     0.015575  d :     0.086959
      dxz     :     0.025370
      dyz     :     0.008993
      dx2y2   :     0.022919
      dxy     :     0.014101
      f0      :     0.001027  f :     0.007895
      f+1     :     0.001412
      f-1     :     0.000972
      f+2     :     0.000840
      f-2     :     0.000885
      f+3     :     0.001218
      f-3     :     0.001541
  9 H s       :     0.842601  s :     0.842601
      pz      :     0.007303  p :     0.023461
      px      :     0.010694
      py      :     0.005463
 10 H s       :     0.853398  s :     0.853398
      pz      :     0.005962  p :     0.023604
      px      :     0.011577
      py      :     0.006065
 11 H s       :     0.843445  s :     0.843445
      pz      :     0.012953  p :     0.023571
      px      :     0.005224
      py      :     0.005394
 12 H s       :     0.842237  s :     0.842237
      pz      :     0.004606  p :     0.023497
      px      :     0.011448
      py      :     0.007443
 13 H s       :     0.874968  s :     0.874968
      pz      :     0.013267  p :     0.023097
      px      :     0.004395
      py      :     0.005435
 14 H s       :     0.863696  s :     0.863696
      pz      :     0.012264  p :     0.024100
      px      :     0.006449
      py      :     0.005387
 15 H s       :     0.849078  s :     0.849078
      pz      :     0.008850  p :     0.024186
      px      :     0.009335
      py      :     0.006001
 16 H s       :     0.848756  s :     0.848756
      pz      :     0.004989  p :     0.024172
      px      :     0.005015
      py      :     0.014168
 17 H s       :     0.862196  s :     0.862196
      pz      :     0.012938  p :     0.023946
      px      :     0.005966
      py      :     0.005042
 18 H s       :     0.875657  s :     0.875657
      pz      :     0.013048  p :     0.024744
      px      :     0.006118
      py      :     0.005579
 19 H s       :     0.856038  s :     0.856038
      pz      :     0.011900  p :     0.023897
      px      :     0.006543
      py      :     0.005454
 20 H s       :     0.825187  s :     0.825187
      pz      :     0.009049  p :     0.024354
      px      :     0.008901
      py      :     0.006405
 21 H s       :     0.853275  s :     0.853275
      pz      :     0.005043  p :     0.023666
      px      :     0.004959
      py      :     0.013664


                     *******************************
                     * LOEWDIN POPULATION ANALYSIS *
                     *******************************

----------------------
LOEWDIN ATOMIC CHARGES
----------------------
   0 C :   -0.336297
   1 N :    0.085764
   2 C :   -0.348039
   3 O :    0.225555
   4 C :   -0.290356
   5 C :   -0.271954
   6 C :   -0.240153
   7 C :   -0.246032
   8 C :   -0.285483
   9 H :    0.115053
  10 H :    0.108035
  11 H :    0.119403
  12 H :    0.131034
  13 H :    0.125709
  14 H :    0.141063
  15 H :    0.142198
  16 H :    0.139962
  17 H :    0.142051
  18 H :    0.166088
  19 H :    0.125821
  20 H :    0.129719
  21 H :    0.120858

-------------------------------
LOEWDIN REDUCED ORBITAL CHARGES
-------------------------------
  0 C s       :     2.842818  s :     2.842818
      pz      :     1.086413  p :     3.083574
      px      :     1.081620
      py      :     0.915541
      dz2     :     0.055230  d :     0.365109
      dxz     :     0.032245
      dyz     :     0.083985
      dx2y2   :     0.078291
      dxy     :     0.115359
      f0      :     0.006015  f :     0.044796
      f+1     :     0.001487
      f-1     :     0.006078
      f+2     :     0.007356
      f-2     :     0.003471
      f+3     :     0.011378
      f-3     :     0.009013
  1 N s       :     3.051196  s :     3.051196
      pz      :     1.064162  p :     3.604551
      px      :     1.380165
      py      :     1.160225
      dz2     :     0.025152  d :     0.236717
      dxz     :     0.027034
      dyz     :     0.042566
      dx2y2   :     0.073396
      dxy     :     0.068569
      f0      :     0.001911  f :     0.021772
      f+1     :     0.001862
      f-1     :     0.002048
      f+2     :     0.002880
      f-2     :     0.002041
      f+3     :     0.006291
      f-3     :     0.004739
  2 C s       :     2.734836  s :     2.734836
      pz      :     0.816633  p :     2.673307
      px      :     0.896216
      py      :     0.960458
      dz2     :     0.061235  d :     0.818494
      dxz     :     0.149635
      dyz     :     0.080778
      dx2y2   :     0.294518
      dxy     :     0.232328
      f0      :     0.008040  f :     0.121401
      f+1     :     0.011125
      f-1     :     0.006521
      f+2     :     0.010146
      f-2     :     0.017412
      f+3     :     0.044879
      f-3     :     0.023278
  3 O s       :     3.257865  s :     3.257865
      pz      :     1.514805  p :     4.371480
      px      :     1.292130
      py      :     1.564545
      dz2     :     0.022884  d :     0.135655
      dxz     :     0.031473
      dyz     :     0.015198
      dx2y2   :     0.030849
      dxy     :     0.035250
      f0      :     0.001098  f :     0.009445
      f+1     :     0.001448
      f-1     :     0.000865
      f+2     :     0.001204
      f-2     :     0.001435
      f+3     :     0.001844
      f-3     :     0.001551
  4 C s       :     2.798623  s :     2.798623
      pz      :     0.946077  p :     2.870071
      px      :     0.906109
      py      :     1.017886
      dz2     :     0.143032  d :     0.547793
      dxz     :     0.079710
      dyz     :     0.094394
      dx2y2   :     0.094137
      dxy     :     0.136519
      f0      :     0.007401  f :     0.073870
      f+1     :     0.013100
      f-1     :     0.007301
      f+2     :     0.013106
      f-2     :     0.012865
      f+3     :     0.009636
      f-3     :     0.010460
  5 C s       :     2.778371  s :     2.778371
      pz      :     1.020491  p :     3.031498
      px      :     1.000941
      py      :     1.010066
      dz2     :     0.062249  d :     0.417556
      dxz     :     0.095470
      dyz     :     0.061805
      dx2y2   :     0.104982
      dxy     :     0.093052
      f0      :     0.005223  f :     0.044528
      f+1     :     0.004641
      f-1     :     0.004584
      f+2     :     0.006210
      f-2     :     0.005141
      f+3     :     0.011146
      f-3     :     0.007584
  6 C s       :     2.773482  s :     2.773482
      pz      :     1.007660  p :     3.000562
      px      :     0.990224
      py      :     1.002678
      dz2     :     0.108333  d :     0.422064
      dxz     :     0.095075
      dyz     :     0.030045
      dx2y2   :     0.119173
      dxy     :     0.069437
      f0      :     0.005424  f :     0.044045
      f+1     :     0.007095
      f-1     :     0.004512
      f+2     :     0.005606
      f-2     :     0.007257
      f+3     :     0.007240
      f-3     :     0.006911
  7 C s       :     2.729233  s :     2.729233
      pz      :     0.977845  p :     2.929336
      px      :     0.988442
      py      :     0.963049
      dz2     :     0.107899  d :     0.530024
      dxz     :     0.105666
      dyz     :     0.073874
      dx2y2   :     0.137844
      dxy     :     0.104740
      f0      :     0.006911  f :     0.057439
      f+1     :     0.007696
      f-1     :     0.006056
      f+2     :     0.008721
      f-2     :     0.007243
      f+3     :     0.011602
      f-3     :     0.009210
  8 C s       :     2.826035  s :     2.826035
      pz      :     1.072476  p :     3.137849
      px      :     1.019645
      py      :     1.045727
      dz2     :     0.050587  d :     0.291626
      dxz     :     0.087357
      dyz     :     0.017270
      dx2y2   :     0.087088
      dxy     :     0.049323
      f0      :     0.003245  f :     0.029974
      f+1     :     0.004291
      f-1     :     0.003310
      f+2     :     0.002871
      f-2     :     0.004866
      f+3     :     0.005355
      f-3     :     0.006036
  9 H s       :     0.820313  s :     0.820313
      pz      :     0.020802  p :     0.064634
      px      :     0.030306
      py      :     0.013526
 10 H s       :     0.823989  s :     0.823989
      pz      :     0.017578  p :     0.067977
      px      :     0.034235
      py      :     0.016164
 11 H s       :     0.815500  s :     0.815500
      pz      :     0.036830  p :     0.065097
      px      :     0.014750
      py      :     0.013517
 12 H s       :     0.806051  s :     0.806051
      pz      :     0.013203  p :     0.062914
      px      :     0.030306
      py      :     0.019405
 13 H s       :     0.811204  s :     0.811204
      pz      :     0.035970  p :     0.063087
      px      :     0.012713
      py      :     0.014404
 14 H s       :     0.794813  s :     0.794813
      pz      :     0.032988  p :     0.064123
      px      :     0.016405
      py      :     0.014730
 15 H s       :     0.793450  s :     0.793450
      pz      :     0.024740  p :     0.064351
      px      :     0.023576
      py      :     0.016035
 16 H s       :     0.795560  s :     0.795560
      pz      :     0.014167  p :     0.064478
      px      :     0.013806
      py      :     0.036505
 17 H s       :     0.793976  s :     0.793976
      pz      :     0.033416  p :     0.063973
      px      :     0.016190
      py      :     0.014368
 18 H s       :     0.771250  s :     0.771250
      pz      :     0.031452  p :     0.062662
      px      :     0.016273
      py      :     0.014936
 19 H s       :     0.808193  s :     0.808193
      pz      :     0.033620  p :     0.065986
      px      :     0.017030
      py      :     0.015336
 20 H s       :     0.802707  s :     0.802707
      pz      :     0.026218  p :     0.067573
      px      :     0.023634
      py      :     0.017722
 21 H s       :     0.813506  s :     0.813506
      pz      :     0.014592  p :     0.065636
      px      :     0.013764
      py      :     0.037280


                      *****************************
                      * MAYER POPULATION ANALYSIS *
                      *****************************

  NA   - Mulliken gross atomic population
  ZA   - Total nuclear charge
  QA   - Mulliken gross atomic charge
  VA   - Mayer's total valence
  BVA  - Mayer's bonded valence
  FA   - Mayer's free valence

  ATOM       NA         ZA         QA         VA         BVA        FA
  0 C      6.2889     6.0000    -0.2889     4.0106     3.7190     0.2917
  1 N      7.2486     7.0000    -0.2486     3.2030     2.7651     0.4378
  2 C      5.8869     6.0000     0.1131     4.3339     3.9749     0.3590
  3 O      8.2899     8.0000    -0.2899     2.3181     1.8981     0.4199
  4 C      6.0654     6.0000    -0.0654     4.0304     3.7315     0.2989
  5 C      6.2095     6.0000    -0.2095     4.0210     3.7101     0.3110
  6 C      6.2344     6.0000    -0.2344     3.9672     3.6517     0.3155
  7 C      6.0056     6.0000    -0.0056     3.9039     3.5745     0.3294
  8 C      6.3699     6.0000    -0.3699     4.0146     3.7161     0.2985
  9 H      0.8661     1.0000     0.1339     0.9655     0.9170     0.0485
 10 H      0.8770     1.0000     0.1230     0.9829     0.9327     0.0502
 11 H      0.8670     1.0000     0.1330     0.9694     0.9203     0.0491
 12 H      0.8657     1.0000     0.1343     0.9607     0.9133     0.0475
 13 H      0.8981     1.0000     0.1019     0.9722     0.9214     0.0508
 14 H      0.8878     1.0000     0.1122     0.9837     0.9338     0.0500
 15 H      0.8733     1.0000     0.1267     0.9741     0.9246     0.0495
 16 H      0.8729     1.0000     0.1271     0.9758     0.9258     0.0499
 17 H      0.8861     1.0000     0.1139     0.9864     0.9352     0.0512
 18 H      0.9004     1.0000     0.0996     0.9768     0.9245     0.0523
 19 H      0.8799     1.0000     0.1201     0.9901     0.9403     0.0498
 20 H      0.8495     1.0000     0.1505     0.9917     0.9437     0.0480
 21 H      0.8769     1.0000     0.1231     0.9694     0.9197     0.0497

  Mayer bond orders larger than 0.1
B(  0-C ,  1-N ) :   0.8777 B(  0-C ,  9-H ) :   0.9393 B(  0-C , 10-H ) :   0.9289 
B(  0-C , 11-H ) :   0.9308 B(  1-N ,  2-C ) :   1.9301 B(  2-C ,  3-O ) :   1.0400 
B(  2-C ,  7-C ) :   0.9163 B(  3-O ,  4-C ) :   0.8713 B(  4-C ,  5-C ) :   0.9519 
B(  4-C , 12-H ) :   0.9326 B(  4-C , 13-H ) :   0.9289 B(  5-C ,  6-C ) :   0.9159 
B(  5-C , 14-H ) :   0.9243 B(  5-C , 15-H ) :   0.9232 B(  6-C ,  7-C ) :   0.9140 
B(  6-C , 16-H ) :   0.9309 B(  6-C , 17-H ) :   0.9271 B(  7-C ,  8-C ) :   0.9220 
B(  7-C , 18-H ) :   0.9155 B(  8-C , 19-H ) :   0.9306 B(  8-C , 20-H ) :   0.9361 
B(  8-C , 21-H ) :   0.9339 


-------
TIMINGS
-------

Total time                : 1036.473 sec
Integral trafo            :    7.442 sec (  0.7%)
FC preparation            :    4.351 sec (  0.4%)
I/O of integrals          :    0.059 sec (  0.0%)
K(i,j) Operators          :   11.648 sec (  1.1%)
T(i,j) pair energies      :    1.027 sec (  0.1%)
V-calculation             :    0.019 sec (  0.0%)
V**(-1/2)                 :    0.136 sec (  0.0%)
Gamma(ia|P)               :   11.427 sec (  1.1%)
Gamma-Trafo               :    1.795 sec (  0.2%)
D(virtual)                :    4.315 sec (  0.4%)
D(internal)               :    4.186 sec (  0.4%)
W(virtual)                :    0.000 sec (  0.0%)
W(internal)               :    0.000 sec (  0.0%)
L(virtual)                :   13.720 sec (  1.3%)
L(internal)               :    0.305 sec (  0.0%)
G(D)                      :  129.194 sec ( 12.5%)
G(Z)                      :    0.000 sec (  0.0%)
Z-Vector Solution         :  845.951 sec ( 81.6%)
3-Index Derivative        :    0.000 sec (  0.0%)
2-Index Derivative        :    0.000 sec (  0.0%)
Separable Gradient (RIJ)  :    0.000 sec (  0.0%)
Separable Gradient (X)    :    0.000 sec (  0.0%)


---------------------------------------
MP2 TOTAL ENERGY:     -403.676611048 Eh
---------------------------------------

-------------------------   --------------------
FINAL SINGLE POINT ENERGY      -403.676611048484
-------------------------   --------------------


                            ***************************************
                            *     ORCA property calculations      *
                            ***************************************

                                    ---------------------
                                    Active property flags
                                    ---------------------
   (+) Dipole Moment


------------------------------------------------------------------------------
                       ORCA ELECTRIC PROPERTIES CALCULATION
------------------------------------------------------------------------------

Dipole Moment Calculation                       ... on
Quadrupole Moment Calculation                   ... off
Polarizability Calculation                      ... off
GBWName                                         ... dsgdb9nsd_097245.gbw
Electron density file                           ... dsgdb9nsd_097245.scfp.tmp

-------------
DIPOLE MOMENT
-------------
                                X             Y             Z
Electronic contribution:     -1.05478       2.88441       1.55449
Nuclear contribution   :      0.12735      -3.37245      -1.98533
                        -----------------------------------------
Total Dipole Moment    :     -0.92742      -0.48804      -0.43084
                        -----------------------------------------
Magnitude (a.u.)       :      1.13310
Magnitude (Debye)      :      2.88012


                         *** MP2 UNRELAXED DENSITY ***

------------------------------------------------------------------------------
                       ORCA ELECTRIC PROPERTIES CALCULATION
------------------------------------------------------------------------------

Dipole Moment Calculation                       ... on
Quadrupole Moment Calculation                   ... off
Polarizability Calculation                      ... off
GBWName                                         ... dsgdb9nsd_097245.gbw
Electron density file                           ... dsgdb9nsd_097245.pmp2ur

-------------
DIPOLE MOMENT
-------------
                                X             Y             Z
Electronic contribution:     -1.03497       2.90827       1.56957
Nuclear contribution   :      0.12735      -3.37245      -1.98533
                        -----------------------------------------
Total Dipole Moment    :     -0.90761      -0.46418      -0.41576
                        -----------------------------------------
Magnitude (a.u.)       :      1.10095
Magnitude (Debye)      :      2.79839


                           *** MP2 RELAXED DENSITY ***

------------------------------------------------------------------------------
                       ORCA ELECTRIC PROPERTIES CALCULATION
------------------------------------------------------------------------------

Dipole Moment Calculation                       ... on
Quadrupole Moment Calculation                   ... off
Polarizability Calculation                      ... off
GBWName                                         ... dsgdb9nsd_097245.gbw
Electron density file                           ... dsgdb9nsd_097245.pmp2re

-------------
DIPOLE MOMENT
-------------
                                X             Y             Z
Electronic contribution:     -0.95560       3.00659       1.60312
Nuclear contribution   :      0.12735      -3.37245      -1.98533
                        -----------------------------------------
Total Dipole Moment    :     -0.82825      -0.36586      -0.38221
                        -----------------------------------------
Magnitude (a.u.)       :      0.98282
Magnitude (Debye)      :      2.49813


Timings for individual modules:

Sum of individual times         ...     1209.219 sec (=  20.154 min)
GTO integral calculation        ...        0.592 sec (=   0.010 min)   0.0 %
SCF iterations                  ...      171.997 sec (=   2.867 min)  14.2 %
MP2 module                      ...     1036.630 sec (=  17.277 min)  85.7 %
                             ****ORCA TERMINATED NORMALLY****
TOTAL RUN TIME: 0 days 0 hours 20 minutes 9 seconds 752 msec
