
                                 *****************
                                 * O   R   C   A *
                                 *****************

           --- An Ab Initio, DFT and Semiempirical electronic structure package ---

                  #######################################################
                  #                        -***-                        #
                  #  Department of molecular theory and spectroscopy    #
                  #              Directorship: Frank Neese              #
                  # Max Planck Institute for Chemical Energy Conversion #
                  #                  D-45470 Muelheim/Ruhr              #
                  #                       Germany                       #
                  #                                                     #
                  #                  All rights reserved                #
                  #                        -***-                        #
                  #######################################################


                         Program Version 3.0.3 - RELEASE   -


 With contributions from (in alphabetic order):
   Ute Becker             : Parallelization
   Dmytro Bykov           : SCF Hessian
   Dmitry Ganyushin       : Spin-Orbit,Spin-Spin,Magnetic field MRCI
   Andreas Hansen         : Spin unrestricted coupled pair/coupled cluster methods
   Dimitrios Liakos       : Extrapolation schemes; parallel MDCI
   Robert Izsak           : Overlap fitted RIJCOSX, COSX-SCS-MP3
   Christian Kollmar      : KDIIS, OOCD, Brueckner-CCSD(T), CCSD density
   Simone Kossmann        : Meta GGA functionals, TD-DFT gradient, OOMP2, MP2 Hessian
   Taras Petrenko         : DFT Hessian,TD-DFT gradient, ASA and ECA modules, normal mode analysis, Resonance Raman, ABS, FL, XAS/XES, NRVS
   Christoph Reimann      : Effective Core Potentials
   Michael Roemelt        : Restricted open shell CIS
   Christoph Riplinger    : Improved optimizer, TS searches, QM/MM, DLPNO-CCSD
   Barbara Sandhoefer     : DKH picture change effects
   Igor Schapiro          : Molecular dynamics
   Kantharuban Sivalingam : CASSCF convergence, NEVPT2
   Boris Wezisla          : Elementary symmetry handling
   Frank Wennmohs         : Technical directorship


 We gratefully acknowledge several colleagues who have allowed us to
 interface, adapt or use parts of their codes:
   Stefan Grimme, W. Hujo, H. Kruse, T. Risthaus : VdW corrections, initial TS optimization,
                                                   DFT functionals, gCP
   Ed Valeev                                     : LibInt (2-el integral package), F12 methods
   Garnet Chan, S. Sharma, R. Olivares           : DMRG
   Ulf Ekstrom                                   : XCFun DFT Library
   Mihaly Kallay                                 : mrcc  (arbitrary order and MRCC methods)
   Andreas Klamt, Michael Diedenhofen            : otool_cosmo (COSMO solvation model)
   Frank Weinhold                                : gennbo (NPA and NBO analysis)
   Christopher J. Cramer and Donald G. Truhlar   : smd solvation model


 Your calculation uses the libint2 library for the computation of 2-el integrals
 For citations please refer to: http://libint.valeyev.net

 This ORCA versions uses:
   CBLAS   interface :  Fast vector & matrix operations
   LAPACKE interface :  Fast linear algebra routines
   SCALAPACK package :  Parallel linear algebra routines


Your calculation utilizes the basis: Ahlrichs-TZV
Cite in your paper:
H - Kr: A. Schaefer, H. Horn and R. Ahlrichs, J. Chem. Phys. 97, 2571 (1992).

The def2-TZV basis will be loaded
Cite in your paper:
 	F. Weigend, R. Ahlrichs, Phys. Chem. Chem. Phys. 2005, 7, 3297.

================================================================================
                                        WARNINGS
                       Please study these warnings very carefully!
================================================================================
Now building the actual basis set


INFO   : the flag for use of LIBINT has been found!

================================================================================
                                       INPUT FILE
================================================================================
NAME = dsgdb9nsd_119026.inp
|  1> ! RI-MP2 RIJK def2-TZVP def2-TZVP/C def2-TZVP/JK TIGHTSCF
|  2> % maxcore 2000
|  3> % mp2 density relaxed end
|  4> *xyz 0 1
|  5>  C       -0.2224466284     1.4804956924     1.0330911106 
|  6>  O       -0.1497752739     0.0945903905     1.2877398852 
|  7>  C        0.6460430678    -0.6015194977     0.3571878819 
|  8>  C        0.5900689407    -2.0858321111     0.6764713671 
|  9>  C        1.3459058567    -2.9762950202    -0.3058917388 
| 10>  C        0.8878617237    -2.8233481880    -1.6884358060 
| 11>  N        0.5288098902    -2.6794306031    -2.7773463805 
| 12>  C        0.4846960944    -2.5192959222     2.0903399412 
| 13>  N       -0.6651213361    -2.6534275496     1.1709605967 
| 14>  H       -0.6466516854     1.6871096883     0.0393690291 
| 15>  H       -0.8711485542     1.9163626173     1.7959123935 
| 16>  H        0.7686903108     1.9547216268     1.0926376985 
| 17>  H        0.2783454774    -0.4294402287    -0.6678933409 
| 18>  H        1.6913030569    -0.2476883808     0.3931878567 
| 19>  H        2.4206996898    -2.7596507890    -0.2712076745 
| 20>  H        1.2108457376    -4.0197595124    -0.0074668530 
| 21>  H        0.9314053582    -3.4580432390     2.4075486696 
| 22>  H        0.4467847718    -1.7419248600     2.8459941996 
| 23>  H       -1.3127311880    -1.8886209034     1.3505709640 
| 24> *
| 25> 
| 26>                          ****END OF INPUT****
================================================================================

                       ****************************
                       * Single Point Calculation *
                       ****************************

---------------------------------
CARTESIAN COORDINATES (ANGSTROEM)
---------------------------------
  C     -0.222447    1.480496    1.033091
  O     -0.149775    0.094590    1.287740
  C      0.646043   -0.601519    0.357188
  C      0.590069   -2.085832    0.676471
  C      1.345906   -2.976295   -0.305892
  C      0.887862   -2.823348   -1.688436
  N      0.528810   -2.679431   -2.777346
  C      0.484696   -2.519296    2.090340
  N     -0.665121   -2.653428    1.170961
  H     -0.646652    1.687110    0.039369
  H     -0.871149    1.916363    1.795912
  H      0.768690    1.954722    1.092638
  H      0.278345   -0.429440   -0.667893
  H      1.691303   -0.247688    0.393188
  H      2.420700   -2.759651   -0.271208
  H      1.210846   -4.019760   -0.007467
  H      0.931405   -3.458043    2.407549
  H      0.446785   -1.741925    2.845994
  H     -1.312731   -1.888621    1.350571

----------------------------
CARTESIAN COORDINATES (A.U.)
----------------------------
  NO LB      ZA    FRAG    MASS        X           Y           Z
   0 C     6.0000    0    12.011         -0.420363207090149          2.797731401086118          1.952259270422550
   1 O     8.0000    0    15.999         -0.283034249304044          0.178749932945666          2.433475714755192
   2 C     6.0000    0    12.011          1.220844468860319         -1.136707114866874          0.674987275146408
   3 C     6.0000    0    12.011          1.115068698056019         -3.941651451317806          1.278345621258307
   4 C     6.0000    0    12.011          2.543393471203661         -5.624382481931619         -0.578051612960973
   5 C     6.0000    0    12.011          1.677815502584260         -5.335354856022811         -3.190681268046593
   6 N     7.0000    0    14.007          0.999305869386968         -5.063390034706451         -5.248424038182447
   7 C     6.0000    0    12.011          0.915942876597242         -4.760779343262580          3.950170015665052
   8 N     7.0000    0    14.007         -1.256897171056790         -5.014251384945748          2.212794841376013
   9 H     1.0000    0     1.008         -1.221994589444603          3.188175268772247          0.074396683157376
  10 H     1.0000    0     1.008         -1.646232189399454          3.621400519981540          3.393782584230017
  11 H     1.0000    0     1.008          1.452614169210809          3.693888542705024          2.064786013763019
  12 H     1.0000    0     1.008          0.525996722901567         -0.811524423131509         -1.262135500970706
  13 H     1.0000    0     1.008          3.196099587004832         -0.468063206266399          0.743017368346474
  14 H     1.0000    0     1.008          4.574459466190127         -5.214984216469702         -0.512508230222658
  15 H     1.0000    0     1.008          2.288166834489874         -7.596244602660828         -0.014110307252248
  16 H     1.0000    0     1.008          1.760101046664825         -6.534754680967994          4.549607639630461
  17 H     1.0000    0     1.008          0.844300859508503         -3.291760931269117          5.378149615972416
  18 H     1.0000    0     1.008         -2.480702432777092         -3.568976278224944          2.552209246386018

--------------------------------
INTERNAL COORDINATES (ANGSTROEM)
--------------------------------
 C      0   0   0   0.000000     0.000     0.000
 O      1   0   0   1.410979     0.000     0.000
 C      2   1   0   1.408482   113.285     0.000
 C      3   2   1   1.519296   108.856   183.217
 C      4   3   2   1.526188   114.614   176.601
 C      5   4   3   1.464454   113.069   302.719
 N      6   5   4   1.155576   178.838    50.941
 C      4   3   2   1.482572   119.253   325.896
 N      4   3   2   1.463621   118.781    35.919
 H      1   2   3   1.100056   111.554    59.676
 H      1   2   3   1.092104   107.250   179.066
 H      1   2   3   1.100358   111.540   298.320
 H      3   2   1   1.102544   110.407   303.576
 H      3   2   1   1.104111   110.792    62.203
 H      5   4   3   1.096959   110.466    64.399
 H      5   4   3   1.093671   108.655   182.101
 H      8   4   3   1.086930   120.107   211.310
 H      8   4   3   1.084784   117.212     0.297
 H      9   4   3   1.018129   108.287   352.182

---------------------------
INTERNAL COORDINATES (A.U.)
---------------------------
 C      0   0   0   0.000000     0.000     0.000
 O      1   0   0   2.666363     0.000     0.000
 C      2   1   0   2.661646   113.285     0.000
 C      3   2   1   2.871053   108.856   183.217
 C      4   3   2   2.884078   114.614   176.601
 C      5   4   3   2.767417   113.069   302.719
 N      6   5   4   2.183723   178.838    50.941
 C      4   3   2   2.801654   119.253   325.896
 N      4   3   2   2.765843   118.781    35.919
 H      1   2   3   2.078804   111.554    59.676
 H      1   2   3   2.063777   107.250   179.066
 H      1   2   3   2.079376   111.540   298.320
 H      3   2   1   2.083507   110.407   303.576
 H      3   2   1   2.086467   110.792    62.203
 H      5   4   3   2.072952   110.466    64.399
 H      5   4   3   2.066739   108.655   182.101
 H      8   4   3   2.054000   120.107   211.310
 H      8   4   3   2.049945   117.212     0.297
 H      9   4   3   1.923986   108.287   352.182

---------------------
BASIS SET INFORMATION
---------------------
There are 4 groups of distinct atoms

 Group   1 Type C   : 11s6p2d1f contracted to 5s3p2d1f pattern {62111/411/11/1}
 Group   2 Type O   : 11s6p2d1f contracted to 5s3p2d1f pattern {62111/411/11/1}
 Group   3 Type N   : 11s6p2d1f contracted to 5s3p2d1f pattern {62111/411/11/1}
 Group   4 Type H   : 5s1p contracted to 3s1p pattern {311/1}

Atom   0C    basis set group =>   1
Atom   1O    basis set group =>   2
Atom   2C    basis set group =>   1
Atom   3C    basis set group =>   1
Atom   4C    basis set group =>   1
Atom   5C    basis set group =>   1
Atom   6N    basis set group =>   3
Atom   7C    basis set group =>   1
Atom   8N    basis set group =>   3
Atom   9H    basis set group =>   4
Atom  10H    basis set group =>   4
Atom  11H    basis set group =>   4
Atom  12H    basis set group =>   4
Atom  13H    basis set group =>   4
Atom  14H    basis set group =>   4
Atom  15H    basis set group =>   4
Atom  16H    basis set group =>   4
Atom  17H    basis set group =>   4
Atom  18H    basis set group =>   4
-------------------------------
AUXILIARY BASIS SET INFORMATION
-------------------------------
There are 4 groups of distinct atoms

 Group   1 Type C   : 14s10p6d2f1g contracted to 10s8p5d1f1g pattern {5111111111/31111111/21111/2/1}
 Group   2 Type O   : 14s10p6d2f1g contracted to 10s8p4d2f1g pattern {5111111111/31111111/3111/11/1}
 Group   3 Type N   : 14s10p6d2f1g contracted to 10s8p4d2f1g pattern {5111111111/31111111/3111/11/1}
 Group   4 Type H   : 4s2p2d contracted to 2s2p2d pattern {31/11/11}

Atom   0C    basis set group =>   1
Atom   1O    basis set group =>   2
Atom   2C    basis set group =>   1
Atom   3C    basis set group =>   1
Atom   4C    basis set group =>   1
Atom   5C    basis set group =>   1
Atom   6N    basis set group =>   3
Atom   7C    basis set group =>   1
Atom   8N    basis set group =>   3
Atom   9H    basis set group =>   4
Atom  10H    basis set group =>   4
Atom  11H    basis set group =>   4
Atom  12H    basis set group =>   4
Atom  13H    basis set group =>   4
Atom  14H    basis set group =>   4
Atom  15H    basis set group =>   4
Atom  16H    basis set group =>   4
Atom  17H    basis set group =>   4
Atom  18H    basis set group =>   4
------------------------------------------------------------------------------
                           ORCA GTO INTEGRAL CALCULATION
                           -- RI-GTO INTEGRALS CHOSEN --
------------------------------------------------------------------------------

                         BASIS SET STATISTICS AND STARTUP INFO

Gaussian basis set:
 # of primitive gaussian shells          ...  240
 # of primitive gaussian functions       ...  494
 # of contracted shells                  ...  139
 # of contracted basis functions         ...  339
 Highest angular momentum                ...    3
 Maximum contraction depth               ...    6
Auxiliary gaussian basis set:
 # of primitive gaussian shells          ...  377
 # of primitive gaussian functions       ... 1073
 # of contracted shells                  ...  285
 # of contracted aux-basis functions     ...  861
 Highest angular momentum                ...    4
 Maximum contraction depth               ...    5
Ratio of auxiliary to basis functions    ...  2.54
Integral package used                  ... LIBINT
 One Electron integrals                  ... done
 Ordering auxiliary basis shells         ... done
 Integral threshhold             Thresh  ...  2.500e-11
 Primitive cut-off               TCut    ...  2.500e-12
 Pre-screening matrix                    ... done
 Shell pair data                         ... 
 Ordering of the shell pairs             ... done (   0.002 sec) 8701 of 9730 pairs
 Determination of significant pairs      ... done (   0.000 sec)
 Creation of shell pair data             ... done (   0.002 sec)
 Storage of shell pair data              ... done (   0.002 sec)
 Shell pair data done in (   0.005 sec)
 Computing two index integrals           ... done
 Cholesky decomposition of the V-matrix  ... done


Timings:
 Total evaluation time                   ...   0.396 sec (  0.007 min)
 One electron matrix time                ...   0.090 sec (  0.001 min) = 22.6%
 Schwartz matrix evaluation time         ...   0.217 sec (  0.004 min) = 54.6%
 Two index repulsion integral time       ...   0.022 sec (  0.000 min) =  5.5%
 Cholesky decomposition of V             ...   0.035 sec (  0.001 min) =  8.8%
 Three index repulsion integral time     ...   0.000 sec (  0.000 min) =  0.0%

-------------------------------------------------------------------------------
                                 ORCA SCF
-------------------------------------------------------------------------------

------------
SCF SETTINGS
------------
Hamiltonian:
 Ab initio Hamiltonian  Method          .... Hartree-Fock(GTOs)
 RI-approximation to the Coulomb term is turned on
   Number of auxiliary basis functions  .... 861
   RI-JK (J+K treated both via RI)      .... on


General Settings:
 Integral files         IntName         .... dsgdb9nsd_119026
 Hartree-Fock type      HFTyp           .... RHF
 Total Charge           Charge          ....    0
 Multiplicity           Mult            ....    1
 Number of Electrons    NEL             ....   68
 Basis Dimension        Dim             ....  339
 Nuclear Repulsion      ENuc            ....    440.9371122985 Eh

Convergence Acceleration:
 DIIS                   CNVDIIS         .... on
   Start iteration      DIISMaxIt       ....    12
   Startup error        DIISStart       ....  0.200000
   # of expansion vecs  DIISMaxEq       ....     5
   Bias factor          DIISBfac        ....   1.050
   Max. coefficient     DIISMaxC        ....  10.000
 Newton-Raphson         CNVNR           .... off
 SOSCF                  CNVSOSCF        .... on
   Start iteration      SOSCFMaxIt      ....   150
   Startup grad/error   SOSCFStart      ....  0.003300
 Level Shifting         CNVShift        .... on
   Level shift para.    LevelShift      ....    0.2500
   Turn off err/grad.   ShiftErr        ....    0.0010
 Zerner damping         CNVZerner       .... off
 Static damping         CNVDamp         .... on
   Fraction old density DampFac         ....    0.7000
   Max. Damping (<1)    DampMax         ....    0.9800
   Min. Damping (>=0)   DampMin         ....    0.0000
   Turn off err/grad.   DampErr         ....    0.1000
 Fernandez-Rico         CNVRico         .... off

SCF Procedure:
 Maximum # iterations   MaxIter         ....   125
 SCF integral mode      SCFMode         .... Direct
   Integral package                     .... LIBINT
 Reset frequeny         DirectResetFreq ....    20
 Integral Threshold     Thresh          ....  2.500e-11 Eh
 Primitive CutOff       TCut            ....  2.500e-12 Eh

Convergence Tolerance:
 Convergence Check Mode ConvCheckMode   .... Total+1el-Energy
 Energy Change          TolE            ....  1.000e-08 Eh
 1-El. energy change                    ....  1.000e-05 Eh
 Orbital Gradient       TolG            ....  1.000e-05
 Orbital Rotation angle TolX            ....  1.000e-05
 DIIS Error             TolErr          ....  5.000e-07


Diagonalization of the overlap matrix:
Smallest eigenvalue                        ... 9.096e-05
Time for diagonalization                   ...    0.033 sec
Threshold for overlap eigenvalues          ... 1.000e-08
Number of eigenvalues below threshold      ... 0
Time for construction of square roots      ...    0.018 sec
Total time needed                          ...    0.051 sec

-------------------
DFT GRID GENERATION
-------------------

General Integration Accuracy     IntAcc      ...  4.340
Radial Grid Type                 RadialGrid  ... Gauss-Chebyshev
Angular Grid (max. acc.)         AngularGrid ... Lebedev-110
Angular grid pruning method      GridPruning ... 3 (G Style)
Weight generation scheme         WeightScheme... Becke
Basis function cutoff            BFCut       ...    1.0000e-11
Integration weight cutoff        WCut        ...    1.0000e-14
Grids for H and He will be reduced by one unit

# of grid points (after initial pruning)     ...  22996 (   0.0 sec)
# of grid points (after weights+screening)   ...  21172 (   0.1 sec)
nearest neighbour list constructed           ...    0.0 sec
Grid point re-assignment to atoms done       ...    0.0 sec
Grid point division into batches done        ...    0.0 sec
Reduced shell lists constructed in    1.3 sec

Total number of grid points                  ...    21172
Total number of batches                      ...      341
Average number of points per batch           ...       62
Average number of grid points per atom       ...     1114
Average number of shells per batch           ...    90.63 (65.20%)
Average number of basis functions per batch  ...   223.73 (66.00%)
Average number of large shells per batch     ...    69.42 (76.59%)
Average number of large basis fcns per batch ...   168.57 (75.34%)
Average number of aux-shells per batch       ...    90.63 (31.80%)
Average number of aux functions per batch    ...   223.73 (  inf%)
Maximum spatial batch extension              ...  20.35, 18.59, 19.34 au
Average spatial batch extension              ...   3.70,  3.36,  3.56 au

Time for grid setup =    1.445 sec

------------------------------
INITIAL GUESS: MODEL POTENTIAL
------------------------------
Loading Hartree-Fock densities                     ... done
Calculating cut-offs                               ... done
Setting up the integral package                    ... done
Initializing the effective Hamiltonian             ... done
Starting the Coulomb interaction                   ... done (   0.7 sec)
Reading the grid                                   ... done
Mapping shells                                     ... done
Starting the XC term evaluation                    ... done (   0.7 sec)
Transforming the Hamiltonian                       ... done (   0.0 sec)
Diagonalizing the Hamiltonian                      ... done (   0.0 sec)
Back transforming the eigenvectors                 ... done (   0.0 sec)
Now organizing SCF variables                       ... done
                      ------------------
                      INITIAL GUESS DONE (   3.0 sec)
                      ------------------
--------------
SCF ITERATIONS
--------------
ITER       Energy         Delta-E        Max-DP      RMS-DP      [F,P]     Damp
  0   -416.4963947615   0.000000000000 0.04411833  0.00083461  0.2969817 0.7000
  1   -416.3437396286   0.152655132893 0.04649650  0.00087768  0.2800935 0.7000
                               ***Turning on DIIS***
  2   -416.3833626369  -0.039623008306 0.02637713  0.00063013  0.1807194 0.7000
  3   -417.3577200567  -0.974357419810 0.01639632  0.00035545  0.1260275 0.7000
  4   -416.7647833775   0.592936679219 0.05267895  0.00089345  0.0835140 0.0000
  5   -416.8262300845  -0.061446707038 0.01574001  0.00025338  0.0357504 0.0000
  6   -416.7625241278   0.063705956764 0.00661215  0.00012032  0.0149968 0.0000
  7   -416.8080718699  -0.045547742156 0.00256250  0.00006081  0.0099273 0.0000
  8   -416.8114925016  -0.003420631651 0.00232047  0.00005258  0.0080894 0.0000
                      *** Initiating the SOSCF procedure ***
                           *** Shutting down DIIS ***
                      *** Re-Reading the Fockian *** 
                      *** Removing any level shift *** 
ITER      Energy       Delta-E        Grad      Rot      Max-DP    RMS-DP
  9   -416.88023894  -0.0687464337  0.000212  0.000212  0.001208  0.000017
 10   -416.88247276  -0.0022338235  0.000077  0.000118  0.000316  0.000005
 11   -416.88247314  -0.0000003781  0.000038  0.000048  0.000254  0.000003
 12   -416.88247326  -0.0000001263  0.000011  0.000024  0.000066  0.000001
 13   -416.88247327  -0.0000000065  0.000008  0.000011  0.000033  0.000000
 14   -416.88247327  -0.0000000015  0.000003  0.000005  0.000010  0.000000
                  ***Gradient check signals convergence***
              ***Rediagonalizing the Fockian in SOSCF/NRSCF***

               *****************************************************
               *                     SUCCESS                       *
               *           SCF CONVERGED AFTER  15 CYCLES          *
               *****************************************************


----------------
TOTAL SCF ENERGY
----------------

Total Energy       :         -416.88247327 Eh          -11343.94881 eV

Components:
Nuclear Repulsion  :          440.93711230 Eh           11998.50882 eV
Electronic Energy  :         -857.81958557 Eh          -23342.45763 eV

One Electron Energy:        -1440.59988889 Eh          -39200.71590 eV
Two Electron Energy:          582.78030332 Eh           15858.25827 eV

Virial components:
Potential Energy   :         -833.13961682 Eh          -22670.88154 eV
Kinetic Energy     :          416.25714355 Eh           11326.93273 eV
Virial Ratio       :            2.00150227


---------------
SCF CONVERGENCE
---------------

  Last Energy change         ...   -5.2523e-10  Tolerance :   1.0000e-08
  Last MAX-Density change    ...    9.3947e-06  Tolerance :   1.0000e-07
  Last RMS-Density change    ...    1.0348e-07  Tolerance :   5.0000e-09
  Last Orbital Gradient      ...    1.0677e-06  Tolerance :   1.0000e-05
  Last Orbital Rotation      ...    4.6124e-06  Tolerance :   1.0000e-05

             **** THE GBW FILE WAS UPDATED (dsgdb9nsd_119026.gbw) ****
             **** DENSITY FILE WAS UPDATED (dsgdb9nsd_119026.scfp.tmp) ****
             **** ENERGY FILE WAS UPDATED (dsgdb9nsd_119026.en.tmp) ****
----------------
ORBITAL ENERGIES
----------------

  NO   OCC          E(Eh)            E(eV) 
   0   2.0000     -20.578420      -559.9673 
   1   2.0000     -15.568059      -423.6284 
   2   2.0000     -15.565292      -423.5531 
   3   2.0000     -11.298848      -307.4573 
   4   2.0000     -11.290037      -307.2175 
   5   2.0000     -11.287606      -307.1514 
   6   2.0000     -11.285749      -307.1009 
   7   2.0000     -11.273020      -306.7545 
   8   2.0000     -11.264463      -306.5216 
   9   2.0000      -1.401663       -38.1412 
  10   2.0000      -1.279007       -34.8036 
  11   2.0000      -1.217182       -33.1212 
  12   2.0000      -1.065045       -28.9813 
  13   2.0000      -0.998487       -27.1702 
  14   2.0000      -0.910386       -24.7729 
  15   2.0000      -0.894353       -24.3366 
  16   2.0000      -0.795130       -21.6366 
  17   2.0000      -0.724503       -19.7147 
  18   2.0000      -0.695442       -18.9239 
  19   2.0000      -0.684806       -18.6345 
  20   2.0000      -0.678338       -18.4585 
  21   2.0000      -0.633270       -17.2321 
  22   2.0000      -0.619082       -16.8461 
  23   2.0000      -0.604802       -16.4575 
  24   2.0000      -0.576690       -15.6925 
  25   2.0000      -0.555967       -15.1286 
  26   2.0000      -0.534499       -14.5445 
  27   2.0000      -0.511652       -13.9228 
  28   2.0000      -0.488943       -13.3048 
  29   2.0000      -0.480177       -13.0663 
  30   2.0000      -0.460826       -12.5397 
  31   2.0000      -0.456277       -12.4159 
  32   2.0000      -0.440293       -11.9810 
  33   2.0000      -0.401307       -10.9201 
  34   0.0000       0.125175         3.4062 
  35   0.0000       0.139847         3.8054 
  36   0.0000       0.161576         4.3967 
  37   0.0000       0.167487         4.5575 
  38   0.0000       0.172400         4.6912 
  39   0.0000       0.186990         5.0883 
  40   0.0000       0.192550         5.2396 
  41   0.0000       0.197739         5.3807 
  42   0.0000       0.214474         5.8361 
  43   0.0000       0.217478         5.9179 
  44   0.0000       0.223628         6.0852 
  45   0.0000       0.230166         6.2631 
  46   0.0000       0.243030         6.6132 
  47   0.0000       0.252720         6.8769 
  48   0.0000       0.280601         7.6355 
  49   0.0000       0.282446         7.6857 
  50   0.0000       0.287555         7.8248 
  51   0.0000       0.297808         8.1038 
  52   0.0000       0.317272         8.6334 
  53   0.0000       0.329631         8.9697 
  54   0.0000       0.339187         9.2298 
  55   0.0000       0.365538         9.9468 
  56   0.0000       0.375609        10.2208 
  57   0.0000       0.399788        10.8788 
  58   0.0000       0.406871        11.0715 
  59   0.0000       0.411598        11.2001 
  60   0.0000       0.434278        11.8173 
  61   0.0000       0.443146        12.0586 
  62   0.0000       0.457883        12.4596 
  63   0.0000       0.476688        12.9713 
  64   0.0000       0.498048        13.5526 
  65   0.0000       0.498773        13.5723 
  66   0.0000       0.513868        13.9831 
  67   0.0000       0.518251        14.1023 
  68   0.0000       0.526643        14.3307 
  69   0.0000       0.537727        14.6323 
  70   0.0000       0.550599        14.9825 
  71   0.0000       0.558856        15.2072 
  72   0.0000       0.564631        15.3644 
  73   0.0000       0.567512        15.4428 
  74   0.0000       0.580761        15.8033 
  75   0.0000       0.598643        16.2899 
  76   0.0000       0.610670        16.6172 
  77   0.0000       0.616740        16.7824 
  78   0.0000       0.628075        17.0908 
  79   0.0000       0.642787        17.4911 
  80   0.0000       0.652063        17.7435 
  81   0.0000       0.654913        17.8211 
  82   0.0000       0.660816        17.9817 
  83   0.0000       0.669104        18.2072 
  84   0.0000       0.676250        18.4017 
  85   0.0000       0.692574        18.8459 
  86   0.0000       0.708378        19.2760 
  87   0.0000       0.718534        19.5523 
  88   0.0000       0.732063        19.9204 
  89   0.0000       0.735319        20.0090 
  90   0.0000       0.755014        20.5450 
  91   0.0000       0.772953        21.0331 
  92   0.0000       0.779818        21.2199 
  93   0.0000       0.801212        21.8021 
  94   0.0000       0.821097        22.3432 
  95   0.0000       0.832460        22.6524 
  96   0.0000       0.839832        22.8530 
  97   0.0000       0.872825        23.7508 
  98   0.0000       0.915718        24.9179 
  99   0.0000       0.929326        25.2883 
 100   0.0000       0.950181        25.8557 
 101   0.0000       0.968021        26.3412 
 102   0.0000       0.982299        26.7297 
 103   0.0000       1.033766        28.1302 
 104   0.0000       1.039094        28.2752 
 105   0.0000       1.061085        28.8736 
 106   0.0000       1.070011        29.1165 
 107   0.0000       1.083829        29.4925 
 108   0.0000       1.115583        30.3565 
 109   0.0000       1.130996        30.7760 
 110   0.0000       1.162213        31.6254 
 111   0.0000       1.170043        31.8385 
 112   0.0000       1.189219        32.3603 
 113   0.0000       1.194714        32.5098 
 114   0.0000       1.231011        33.4975 
 115   0.0000       1.256809        34.1995 
 116   0.0000       1.274238        34.6738 
 117   0.0000       1.284665        34.9575 
 118   0.0000       1.297094        35.2957 
 119   0.0000       1.335933        36.3526 
 120   0.0000       1.359662        36.9983 
 121   0.0000       1.364179        37.1212 
 122   0.0000       1.390339        37.8331 
 123   0.0000       1.437307        39.1111 
 124   0.0000       1.443649        39.2837 
 125   0.0000       1.462474        39.7960 
 126   0.0000       1.483768        40.3754 
 127   0.0000       1.497300        40.7436 
 128   0.0000       1.512548        41.1585 
 129   0.0000       1.517069        41.2815 
 130   0.0000       1.539634        41.8956 
 131   0.0000       1.567270        42.6476 
 132   0.0000       1.586456        43.1697 
 133   0.0000       1.630422        44.3660 
 134   0.0000       1.645491        44.7761 
 135   0.0000       1.670674        45.4613 
 136   0.0000       1.682523        45.7838 
 137   0.0000       1.719913        46.8012 
 138   0.0000       1.729778        47.0697 
 139   0.0000       1.742285        47.4100 
 140   0.0000       1.753970        47.7279 
 141   0.0000       1.759585        47.8807 
 142   0.0000       1.780825        48.4587 
 143   0.0000       1.801763        49.0285 
 144   0.0000       1.802981        49.0616 
 145   0.0000       1.833611        49.8951 
 146   0.0000       1.858719        50.5783 
 147   0.0000       1.864096        50.7246 
 148   0.0000       1.876373        51.0587 
 149   0.0000       1.898673        51.6655 
 150   0.0000       1.911329        52.0099 
 151   0.0000       1.922462        52.3129 
 152   0.0000       1.940575        52.8057 
 153   0.0000       1.972980        53.6875 
 154   0.0000       1.985740        54.0347 
 155   0.0000       1.995877        54.3106 
 156   0.0000       2.018361        54.9224 
 157   0.0000       2.051042        55.8117 
 158   0.0000       2.052567        55.8532 
 159   0.0000       2.113225        57.5038 
 160   0.0000       2.145793        58.3900 
 161   0.0000       2.162403        58.8420 
 162   0.0000       2.185437        59.4688 
 163   0.0000       2.199109        59.8408 
 164   0.0000       2.217126        60.3311 
 165   0.0000       2.244463        61.0749 
 166   0.0000       2.256980        61.4155 
 167   0.0000       2.268062        61.7171 
 168   0.0000       2.287180        62.2373 
 169   0.0000       2.307806        62.7986 
 170   0.0000       2.319952        63.1291 
 171   0.0000       2.350206        63.9524 
 172   0.0000       2.374036        64.6008 
 173   0.0000       2.385819        64.9214 
 174   0.0000       2.401868        65.3582 
 175   0.0000       2.430635        66.1409 
 176   0.0000       2.446351        66.5686 
 177   0.0000       2.489156        67.7334 
 178   0.0000       2.508626        68.2632 
 179   0.0000       2.542355        69.1810 
 180   0.0000       2.571965        69.9867 
 181   0.0000       2.585628        70.3585 
 182   0.0000       2.606775        70.9340 
 183   0.0000       2.611827        71.0714 
 184   0.0000       2.618354        71.2490 
 185   0.0000       2.624876        71.4265 
 186   0.0000       2.628173        71.5162 
 187   0.0000       2.650763        72.1309 
 188   0.0000       2.694422        73.3189 
 189   0.0000       2.722528        74.0837 
 190   0.0000       2.735715        74.4426 
 191   0.0000       2.754216        74.9460 
 192   0.0000       2.755985        74.9942 
 193   0.0000       2.798668        76.1556 
 194   0.0000       2.808579        76.4253 
 195   0.0000       2.824264        76.8521 
 196   0.0000       2.841499        77.3211 
 197   0.0000       2.853979        77.6607 
 198   0.0000       2.867417        78.0264 
 199   0.0000       2.878124        78.3177 
 200   0.0000       2.894319        78.7584 
 201   0.0000       2.908880        79.1547 
 202   0.0000       2.915989        79.3481 
 203   0.0000       2.921561        79.4997 
 204   0.0000       2.940057        80.0030 
 205   0.0000       2.966092        80.7115 
 206   0.0000       2.992461        81.4290 
 207   0.0000       3.003134        81.7194 
 208   0.0000       3.011079        81.9356 
 209   0.0000       3.023983        82.2868 
 210   0.0000       3.048619        82.9571 
 211   0.0000       3.069216        83.5176 
 212   0.0000       3.085274        83.9546 
 213   0.0000       3.108799        84.5947 
 214   0.0000       3.125720        85.0552 
 215   0.0000       3.150207        85.7215 
 216   0.0000       3.176269        86.4307 
 217   0.0000       3.199423        87.0607 
 218   0.0000       3.210262        87.3557 
 219   0.0000       3.220398        87.6315 
 220   0.0000       3.278244        89.2056 
 221   0.0000       3.315086        90.2081 
 222   0.0000       3.320379        90.3521 
 223   0.0000       3.339267        90.8661 
 224   0.0000       3.376957        91.8917 
 225   0.0000       3.398772        92.4853 
 226   0.0000       3.408332        92.7454 
 227   0.0000       3.434921        93.4689 
 228   0.0000       3.441856        93.6577 
 229   0.0000       3.460068        94.1532 
 230   0.0000       3.485906        94.8563 
 231   0.0000       3.488241        94.9199 
 232   0.0000       3.495027        95.1045 
 233   0.0000       3.520436        95.7959 
 234   0.0000       3.523122        95.8690 
 235   0.0000       3.542980        96.4094 
 236   0.0000       3.558137        96.8218 
 237   0.0000       3.590620        97.7057 
 238   0.0000       3.611540        98.2750 
 239   0.0000       3.613364        98.3246 
 240   0.0000       3.626880        98.6924 
 241   0.0000       3.636659        98.9585 
 242   0.0000       3.649871        99.3181 
 243   0.0000       3.651766        99.3696 
 244   0.0000       3.681192       100.1703 
 245   0.0000       3.693957       100.5177 
 246   0.0000       3.713448       101.0481 
 247   0.0000       3.732157       101.5571 
 248   0.0000       3.765423       102.4624 
 249   0.0000       3.791165       103.1628 
 250   0.0000       3.827100       104.1407 
 251   0.0000       3.850948       104.7896 
 252   0.0000       3.855274       104.9073 
 253   0.0000       3.882142       105.6384 
 254   0.0000       3.910623       106.4135 
 255   0.0000       3.913802       106.5000 
 256   0.0000       3.925554       106.8198 
 257   0.0000       3.932306       107.0035 
 258   0.0000       3.950852       107.5082 
 259   0.0000       3.989736       108.5662 
 260   0.0000       4.010355       109.1273 
 261   0.0000       4.058146       110.4278 
 262   0.0000       4.068589       110.7119 
 263   0.0000       4.104946       111.7012 
 264   0.0000       4.129213       112.3616 
 265   0.0000       4.163366       113.2909 
 266   0.0000       4.222051       114.8878 
 267   0.0000       4.238767       115.3427 
 268   0.0000       4.251654       115.6934 
 269   0.0000       4.341813       118.1467 
 270   0.0000       4.349282       118.3500 
 271   0.0000       4.352540       118.4386 
 272   0.0000       4.362635       118.7133 
 273   0.0000       4.376258       119.0840 
 274   0.0000       4.455050       121.2281 
 275   0.0000       4.460887       121.3869 
 276   0.0000       4.506895       122.6388 
 277   0.0000       4.550617       123.8286 
 278   0.0000       4.554073       123.9226 
 279   0.0000       4.582535       124.6971 
 280   0.0000       4.612472       125.5118 
 281   0.0000       4.689760       127.6148 
 282   0.0000       4.699379       127.8766 
 283   0.0000       4.709792       128.1599 
 284   0.0000       4.755285       129.3979 
 285   0.0000       4.768942       129.7695 
 286   0.0000       4.817595       131.0934 
 287   0.0000       4.858809       132.2149 
 288   0.0000       4.894228       133.1787 
 289   0.0000       4.931034       134.1803 
 290   0.0000       4.975008       135.3769 
 291   0.0000       4.991326       135.8209 
 292   0.0000       5.008689       136.2934 
 293   0.0000       5.037443       137.0758 
 294   0.0000       5.081133       138.2647 
 295   0.0000       5.109405       139.0340 
 296   0.0000       5.145216       140.0084 
 297   0.0000       5.166563       140.5893 
 298   0.0000       5.201229       141.5326 
 299   0.0000       5.237217       142.5119 
 300   0.0000       5.340791       145.3303 
 301   0.0000       5.358925       145.8238 
 302   0.0000       5.395980       146.8321 
 303   0.0000       5.480179       149.1232 
 304   0.0000       5.500674       149.6810 
 305   0.0000       5.584004       151.9485 
 306   0.0000       5.597017       152.3026 
 307   0.0000       5.620605       152.9444 
 308   0.0000       5.658868       153.9856 
 309   0.0000       5.693715       154.9339 
 310   0.0000       5.824848       158.5022 
 311   0.0000       5.835159       158.7827 
 312   0.0000       5.842325       158.9777 
 313   0.0000       5.915195       160.9606 
 314   0.0000       6.082813       165.5218 
 315   0.0000       6.087764       165.6565 
 316   0.0000       6.156270       167.5206 
 317   0.0000       6.202609       168.7816 
 318   0.0000       6.210165       168.9872 
 319   0.0000       6.288717       171.1247 
 320   0.0000       6.305560       171.5830 
 321   0.0000       6.356475       172.9685 
 322   0.0000       6.548388       178.1907 
 323   0.0000       6.668380       181.4558 
 324   0.0000       6.704779       182.4463 
 325   0.0000       7.215564       196.3455 
 326   0.0000       7.257590       197.4891 
 327   0.0000       7.378541       200.7803 
 328   0.0000       7.736909       210.5320 
 329   0.0000       7.817914       212.7363 
 330   0.0000      23.400343       636.7557 
 331   0.0000      23.487209       639.1195 
 332   0.0000      23.595098       642.0553 
 333   0.0000      23.693704       644.7385 
 334   0.0000      23.817669       648.1117 
 335   0.0000      24.479027       666.1082 
 336   0.0000      33.454025       910.3303 
 337   0.0000      33.505906       911.7421 
 338   0.0000      45.681549      1243.0581 

                    ********************************
                    * MULLIKEN POPULATION ANALYSIS *
                    ********************************

-----------------------
MULLIKEN ATOMIC CHARGES
-----------------------
   0 C :   -0.127914
   1 O :   -0.405074
   2 C :    0.001882
   3 C :    0.215261
   4 C :   -0.020682
   5 C :   -0.182853
   6 N :   -0.171217
   7 C :   -0.135973
   8 N :   -0.464058
   9 H :    0.104603
  10 H :    0.122300
  11 H :    0.097634
  12 H :    0.119516
  13 H :    0.079439
  14 H :    0.143675
  15 H :    0.150879
  16 H :    0.102173
  17 H :    0.134056
  18 H :    0.236352
Sum of atomic charges:    0.0000000

--------------------------------
MULLIKEN REDUCED ORBITAL CHARGES
--------------------------------
  0 C s       :     3.215827  s :     3.215827
      pz      :     1.055166  p :     2.784724
      px      :     1.052230
      py      :     0.677327
      dz2     :     0.020794  d :     0.117868
      dxz     :     0.011655
      dyz     :     0.028609
      dx2y2   :     0.019167
      dxy     :     0.037642
      f0      :     0.001055  f :     0.009497
      f+1     :     0.001123
      f-1     :     0.001185
      f+2     :     0.001400
      f-2     :     0.000374
      f+3     :     0.002269
      f-3     :     0.002091
  1 O s       :     3.773701  s :     3.773701
      pz      :     1.612928  p :     4.589187
      px      :     1.695882
      py      :     1.280377
      dz2     :     0.006218  d :     0.040063
      dxz     :     0.007329
      dyz     :     0.010178
      dx2y2   :     0.009909
      dxy     :     0.006428
      f0      :     0.000219  f :     0.002122
      f+1     :     0.000227
      f-1     :     0.000277
      f+2     :     0.000301
      f-2     :     0.000334
      f+3     :     0.000330
      f-3     :     0.000433
  2 C s       :     3.196069  s :     3.196069
      pz      :     0.880739  p :     2.642038
      px      :     0.907543
      py      :     0.853756
      dz2     :     0.048954  d :     0.148396
      dxz     :     0.015421
      dyz     :     0.025008
      dx2y2   :     0.035052
      dxy     :     0.023960
      f0      :     0.001440  f :     0.011615
      f+1     :     0.001924
      f-1     :     0.001709
      f+2     :     0.002104
      f-2     :     0.001284
      f+3     :     0.001334
      f-3     :     0.001820
  3 C s       :     3.012211  s :     3.012211
      pz      :     0.894276  p :     2.563627
      px      :     0.831040
      py      :     0.838311
      dz2     :     0.044044  d :     0.193863
      dxz     :     0.032589
      dyz     :     0.036285
      dx2y2   :     0.042591
      dxy     :     0.038353
      f0      :     0.002154  f :     0.015038
      f+1     :     0.002375
      f-1     :     0.002201
      f+2     :     0.001951
      f-2     :     0.001971
      f+3     :     0.002076
      f-3     :     0.002310
  4 C s       :     3.051039  s :     3.051039
      pz      :     0.822163  p :     2.866032
      px      :     0.996134
      py      :     1.047735
      dz2     :     0.031226  d :     0.098014
      dxz     :     0.014941
      dyz     :     0.017394
      dx2y2   :     0.025495
      dxy     :     0.008957
      f0      :     0.001129  f :     0.005597
      f+1     :     0.001210
      f-1     :     0.000727
      f+2     :     0.000666
      f-2     :     0.000503
      f+3     :     0.000642
      f-3     :     0.000721
  5 C s       :     3.257126  s :     3.257126
      pz      :     1.010179  p :     2.799451
      px      :     0.894847
      py      :     0.894425
      dz2     :     0.028947  d :     0.109044
      dxz     :     0.033594
      dyz     :     0.036313
      dx2y2   :     0.006430
      dxy     :     0.003759
      f0      :     0.005221  f :     0.017232
      f+1     :     0.004029
      f-1     :     0.004724
      f+2     :     0.001621
      f-2     :     0.001482
      f+3     :     0.000089
      f-3     :     0.000067
  6 N s       :     3.696049  s :     3.696049
      pz      :     1.266797  p :     3.417267
      px      :     1.085587
      py      :     1.064883
      dz2     :     0.014335  d :     0.054913
      dxz     :     0.016858
      dyz     :     0.018971
      dx2y2   :     0.002334
      dxy     :     0.002415
      f0      :     0.000877  f :     0.002989
      f+1     :     0.000687
      f-1     :     0.000844
      f+2     :     0.000274
      f-2     :     0.000279
      f+3     :     0.000014
      f-3     :     0.000014
  7 C s       :     3.217689  s :     3.217689
      pz      :     0.877282  p :     2.803766
      px      :     0.914043
      py      :     1.012441
      dz2     :     0.020046  d :     0.104106
      dxz     :     0.020225
      dyz     :     0.027676
      dx2y2   :     0.015002
      dxy     :     0.021157
      f0      :     0.001816  f :     0.010412
      f+1     :     0.002328
      f-1     :     0.001367
      f+2     :     0.001916
      f-2     :     0.001372
      f+3     :     0.000891
      f-3     :     0.000723
  8 N s       :     3.621769  s :     3.621769
      pz      :     1.229348  p :     3.769630
      px      :     1.048397
      py      :     1.491884
      dz2     :     0.011076  d :     0.068797
      dxz     :     0.018199
      dyz     :     0.008431
      dx2y2   :     0.012307
      dxy     :     0.018784
      f0      :     0.000413  f :     0.003864
      f+1     :     0.000740
      f-1     :     0.000211
      f+2     :     0.000631
      f-2     :     0.000454
      f+3     :     0.000699
      f-3     :     0.000715
  9 H s       :     0.874915  s :     0.874915
      pz      :     0.012593  p :     0.020482
      px      :     0.005242
      py      :     0.002647
 10 H s       :     0.856452  s :     0.856452
      pz      :     0.009163  p :     0.021249
      px      :     0.007797
      py      :     0.004288
 11 H s       :     0.881944  s :     0.881944
      pz      :     0.003422  p :     0.020422
      px      :     0.012305
      py      :     0.004696
 12 H s       :     0.859029  s :     0.859029
      pz      :     0.014100  p :     0.021455
      px      :     0.003991
      py      :     0.003364
 13 H s       :     0.899489  s :     0.899489
      pz      :     0.002758  p :     0.021072
      px      :     0.013999
      py      :     0.004314
 14 H s       :     0.833810  s :     0.833810
      pz      :     0.003293  p :     0.022515
      px      :     0.015234
      py      :     0.003987
 15 H s       :     0.826102  s :     0.826102
      pz      :     0.004205  p :     0.023019
      px      :     0.003798
      py      :     0.015016
 16 H s       :     0.875014  s :     0.875014
      pz      :     0.004467  p :     0.022813
      px      :     0.005656
      py      :     0.012691
 17 H s       :     0.843064  s :     0.843064
      pz      :     0.009353  p :     0.022880
      px      :     0.003524
      py      :     0.010004
 18 H s       :     0.726623  s :     0.726623
      pz      :     0.007508  p :     0.037025
      px      :     0.013550
      py      :     0.015966


                     *******************************
                     * LOEWDIN POPULATION ANALYSIS *
                     *******************************

----------------------
LOEWDIN ATOMIC CHARGES
----------------------
   0 C :   -0.307232
   1 O :    0.093599
   2 C :   -0.249881
   3 C :   -0.298047
   4 C :   -0.171464
   5 C :   -0.165560
   6 N :    0.021736
   7 C :   -0.206619
   8 N :   -0.001148
   9 H :    0.098689
  10 H :    0.105787
  11 H :    0.096684
  12 H :    0.128720
  13 H :    0.121239
  14 H :    0.158938
  15 H :    0.167239
  16 H :    0.116050
  17 H :    0.122411
  18 H :    0.168860

-------------------------------
LOEWDIN REDUCED ORBITAL CHARGES
-------------------------------
  0 C s       :     2.851831  s :     2.851831
      pz      :     1.080801  p :     2.972908
      px      :     1.082253
      py      :     0.809854
      dz2     :     0.067248  d :     0.422895
      dxz     :     0.038814
      dyz     :     0.105561
      dx2y2   :     0.084985
      dxy     :     0.126288
      f0      :     0.006488  f :     0.059599
      f+1     :     0.003176
      f-1     :     0.008242
      f+2     :     0.011265
      f-2     :     0.003606
      f+3     :     0.014415
      f-3     :     0.012406
  1 O s       :     3.269241  s :     3.269241
      pz      :     1.583441  p :     4.523207
      px      :     1.619178
      py      :     1.320588
      dz2     :     0.018223  d :     0.107454
      dxz     :     0.013203
      dyz     :     0.026865
      dx2y2   :     0.026563
      dxy     :     0.022600
      f0      :     0.000758  f :     0.006498
      f+1     :     0.000622
      f-1     :     0.000915
      f+2     :     0.001402
      f-2     :     0.000759
      f+3     :     0.001206
      f-3     :     0.000835
  2 C s       :     2.781511  s :     2.781511
      pz      :     0.935588  p :     2.846748
      px      :     0.959393
      py      :     0.951768
      dz2     :     0.156258  d :     0.547292
      dxz     :     0.077730
      dyz     :     0.090558
      dx2y2   :     0.131725
      dxy     :     0.091020
      f0      :     0.007206  f :     0.074330
      f+1     :     0.011585
      f-1     :     0.011885
      f+2     :     0.014118
      f-2     :     0.011696
      f+3     :     0.008541
      f-3     :     0.009300
  3 C s       :     2.686828  s :     2.686828
      pz      :     0.969948  p :     2.835221
      px      :     0.887240
      py      :     0.978033
      dz2     :     0.144687  d :     0.690850
      dxz     :     0.131278
      dyz     :     0.137569
      dx2y2   :     0.137494
      dxy     :     0.139822
      f0      :     0.011204  f :     0.085148
      f+1     :     0.015403
      f-1     :     0.012516
      f+2     :     0.010046
      f-2     :     0.010523
      f+3     :     0.013734
      f-3     :     0.011722
  4 C s       :     2.756661  s :     2.756661
      pz      :     0.973347  p :     2.992923
      px      :     1.007417
      py      :     1.012159
      dz2     :     0.128553  d :     0.384664
      dxz     :     0.063078
      dyz     :     0.073209
      dx2y2   :     0.092348
      dxy     :     0.027475
      f0      :     0.006920  f :     0.037217
      f+1     :     0.007970
      f-1     :     0.006490
      f+2     :     0.004557
      f-2     :     0.005122
      f+3     :     0.002804
      f-3     :     0.003353
  5 C s       :     2.830961  s :     2.830961
      pz      :     1.140813  p :     2.836659
      px      :     0.862501
      py      :     0.833344
      dz2     :     0.148630  d :     0.438932
      dxz     :     0.128752
      dyz     :     0.127683
      dx2y2   :     0.020340
      dxy     :     0.013526
      f0      :     0.019475  f :     0.059009
      f+1     :     0.016323
      f-1     :     0.013728
      f+2     :     0.004791
      f-2     :     0.004249
      f+3     :     0.000245
      f-3     :     0.000198
  6 N s       :     3.304848  s :     3.304848
      pz      :     1.445907  p :     3.545264
      px      :     1.069809
      py      :     1.029548
      dz2     :     0.041927  d :     0.113033
      dxz     :     0.033260
      dyz     :     0.030298
      dx2y2   :     0.003721
      dxy     :     0.003827
      f0      :     0.005164  f :     0.015119
      f+1     :     0.004351
      f-1     :     0.003341
      f+2     :     0.001069
      f-2     :     0.001094
      f+3     :     0.000049
      f-3     :     0.000052
  7 C s       :     2.785244  s :     2.785244
      pz      :     0.978952  p :     2.937275
      px      :     0.931238
      py      :     1.027085
      dz2     :     0.088878  d :     0.427685
      dxz     :     0.089363
      dyz     :     0.116195
      dx2y2   :     0.054048
      dxy     :     0.079201
      f0      :     0.010010  f :     0.056414
      f+1     :     0.015957
      f-1     :     0.005452
      f+2     :     0.007704
      f-2     :     0.007568
      f+3     :     0.004723
      f-3     :     0.005000
  8 N s       :     3.091975  s :     3.091975
      pz      :     1.188457  p :     3.710295
      px      :     1.108149
      py      :     1.413690
      dz2     :     0.038179  d :     0.182762
      dxz     :     0.039113
      dyz     :     0.018781
      dx2y2   :     0.033094
      dxy     :     0.053595
      f0      :     0.001498  f :     0.016116
      f+1     :     0.003880
      f-1     :     0.000773
      f+2     :     0.002081
      f-2     :     0.002482
      f+3     :     0.003383
      f-3     :     0.002019
  9 H s       :     0.842615  s :     0.842615
      pz      :     0.034066  p :     0.058696
      px      :     0.016306
      py      :     0.008324
 10 H s       :     0.835164  s :     0.835164
      pz      :     0.025395  p :     0.059049
      px      :     0.021931
      py      :     0.011723
 11 H s       :     0.844922  s :     0.844922
      pz      :     0.012119  p :     0.058394
      px      :     0.033392
      py      :     0.012884
 12 H s       :     0.813639  s :     0.813639
      pz      :     0.034177  p :     0.057640
      px      :     0.012970
      py      :     0.010493
 13 H s       :     0.822892  s :     0.822892
      pz      :     0.009748  p :     0.055869
      px      :     0.033909
      py      :     0.012212
 14 H s       :     0.783232  s :     0.783232
      pz      :     0.009990  p :     0.057830
      px      :     0.034692
      py      :     0.013148
 15 H s       :     0.773998  s :     0.773998
      pz      :     0.011642  p :     0.058762
      px      :     0.012141
      py      :     0.034979
 16 H s       :     0.823578  s :     0.823578
      pz      :     0.012362  p :     0.060372
      px      :     0.015702
      py      :     0.032308
 17 H s       :     0.814500  s :     0.814500
      pz      :     0.023174  p :     0.063090
      px      :     0.011875
      py      :     0.028041
 18 H s       :     0.721174  s :     0.721174
      pz      :     0.024572  p :     0.109966
      px      :     0.032571
      py      :     0.052824


                      *****************************
                      * MAYER POPULATION ANALYSIS *
                      *****************************

  NA   - Mulliken gross atomic population
  ZA   - Total nuclear charge
  QA   - Mulliken gross atomic charge
  VA   - Mayer's total valence
  BVA  - Mayer's bonded valence
  FA   - Mayer's free valence

  ATOM       NA         ZA         QA         VA         BVA        FA
  0 C      6.1279     6.0000    -0.1279     3.8969     3.8969     0.0000
  1 O      8.4051     8.0000    -0.4051     1.8060     1.8060     0.0000
  2 C      5.9981     6.0000     0.0019     3.9032     3.9032     0.0000
  3 C      5.7847     6.0000     0.2153     3.8493     3.8493    -0.0000
  4 C      6.0207     6.0000    -0.0207     3.8162     3.8162    -0.0000
  5 C      6.1829     6.0000    -0.1829     4.0377     4.0377    -0.0000
  6 N      7.1712     7.0000    -0.1712     3.0425     3.0425     0.0000
  7 C      6.1360     6.0000    -0.1360     3.9572     3.9572    -0.0000
  8 N      7.4641     7.0000    -0.4641     2.8999     2.8999    -0.0000
  9 H      0.8954     1.0000     0.1046     0.9668     0.9668     0.0000
 10 H      0.8777     1.0000     0.1223     0.9681     0.9681     0.0000
 11 H      0.9024     1.0000     0.0976     0.9653     0.9653     0.0000
 12 H      0.8805     1.0000     0.1195     0.9690     0.9690     0.0000
 13 H      0.9206     1.0000     0.0794     0.9675     0.9675     0.0000
 14 H      0.8563     1.0000     0.1437     0.9682     0.9682     0.0000
 15 H      0.8491     1.0000     0.1509     0.9754     0.9754    -0.0000
 16 H      0.8978     1.0000     0.1022     0.9648     0.9648    -0.0000
 17 H      0.8659     1.0000     0.1341     0.9671     0.9671    -0.0000
 18 H      0.7636     1.0000     0.2364     0.9549     0.9549    -0.0000

  Mayer bond orders larger than 0.1
B(  0-C ,  1-O ) :   0.9226 B(  0-C ,  9-H ) :   0.9877 B(  0-C , 10-H ) :   0.9850 
B(  0-C , 11-H ) :   0.9883 B(  1-O ,  2-C ) :   0.9389 B(  2-C ,  3-C ) :   0.9907 
B(  2-C , 12-H ) :   0.9799 B(  2-C , 13-H ) :   0.9736 B(  3-C ,  4-C ) :   0.9072 
B(  3-C ,  7-C ) :   1.0174 B(  3-C ,  8-N ) :   0.9716 B(  4-C ,  5-C ) :   0.9569 
B(  4-C , 14-H ) :   0.9766 B(  4-C , 15-H ) :   0.9571 B(  5-C ,  6-N ) :   3.0368 
B(  7-C ,  8-N ) :   0.9661 B(  7-C , 16-H ) :   0.9663 B(  7-C , 17-H ) :   0.9572 
B(  8-N , 18-H ) :   0.9215 

-------
TIMINGS
-------

Total SCF time: 0 days 0 hours 2 min 38 sec 

Total time                  ....     158.849 sec
Sum of individual times     ....     163.108 sec  (102.7%)

Fock matrix formation       ....     157.244 sec  ( 99.0%)
Diagonalization             ....       0.714 sec  (  0.4%)
Density matrix formation    ....       0.048 sec  (  0.0%)
Population analysis         ....       0.164 sec  (  0.1%)
Initial guess               ....       2.966 sec  (  1.9%)
Orbital Transformation      ....       0.000 sec  (  0.0%)
Orbital Orthonormalization  ....       0.000 sec  (  0.0%)
DIIS solution               ....       0.200 sec  (  0.1%)
SOSCF solution              ....       0.326 sec  (  0.2%)

   <<< Auxbasis replaced with dsgdb9nsd_119026.AUXC.tmp (Dim=834) >>> 


------------------------------------------------------------------------------
                              ORCA MP2 CALCULATION
------------------------------------------------------------------------------

Freezing NCore=18 chemical core electrons

   <<< Use J-auxbasis for calculation of Separable RI-J derivative contributions dsgdb9nsd_119026.AUXJ.tmp (Dim=861) >>> 


---------------------
RI-MP2 ENERGY+DENSITY
---------------------
Dimension of the basis                    ...  339
Memory devoted to MP2                     ... 2000 MB   
Data format for buffers                   ... DOUBLE
Compression type for matrix containers    ... UNCOMPRESSED
Overall scaling of the MP2 energy         ...   1.000e+00 Eh
Calculating two index integrals           ... done (    0.018 sec)
Cholesky decomposition of V**-1           ... done (    0.120 sec)

-----------------
RI-TRANSFORMATION (AUX index driven)
-----------------

Dimension of the orbital-basis         ... 339
Dimension of the aux-basis             ... 834
Transformation of internal MOs         ...    0-  33
Transformation of internal/external MOs...    0-  33 to   34- 338
Number Format for Storage              ... Double (8 Byte)
Integral mode                          ... Direct

First Phase: integral generation and transformation of MO indices
  Aux angular momentum 0               ... done (    0.819 sec)
  Aux angular momentum 1               ... done (    1.115 sec)
  Aux angular momentum 2               ... done (    1.186 sec)
  Aux angular momentum 3               ... done (    0.905 sec)
  Aux angular momentum 4               ... done (    0.426 sec)
Closing buffer VIJ ( 0.00 GB; CompressionRatio= 1.94)
Closing buffer VIA ( 0.06 GB; CompressionRatio= 1.00)
  Phase 1 completed in     4.551 sec
Second Phase: sorting and transformation of aux index

IJ-Transformation
Memory available                       ... 1986 MB 
Max. # MO pairs treated in a batch     ... 34    
# of internal orbitals                 ... 34
# batches for internal orbitals        ... 1
Closing buffer IJV ( 0.00 GB; CompressionRatio= 1.00)
(ij|v) transformation done in     0.196 sec

IA-Transformation
Memory available                       ... 1986 MB 
Max. # MO pairs treated in a batch     ... 34    
# of internal orbitals                 ... 34
# batches for internal orbitals        ... 1
Closing buffer IAV ( 0.06 GB; CompressionRatio= 1.00)
(ia|v) transformation done in     1.487 sec

  Phase 2 completed in     1.933 sec
RI-Integral transformation completed in     6.484 sec
Opening buffers                              ... done
Frozen core precalculation                   ... done

Starting loop over batches of integrals:

Operator 0  - window                       ... (  9- 33)x( 34-338)
Operator 0  - Memory available             ...  2000 MB
Operator 0  - Memory needed per MO         ...   3.9 MB
Operator 0  - Number of orbitals per batch ... 25
Operator 0  - Number of batches            ... 1

OPERATOR  0   PASS   0:  MOs     9 ...   33
  Reading integrals       ... ok
  Internal MO  11
  Internal MO  14
  Internal MO  17
  Internal MO  20
  Internal MO  23
  Internal MO  26
  Internal MO  29
  Internal MO  32
Time spent in pair loops =    39.318 sec
Deleting buffer (Ka|jb)[aa] ...done

-----------------------------------------------
 RI-MP2 CORRELATION ENERGY:     -1.595957485 Eh
-----------------------------------------------


---------------------
MP2 DENSITY FORMATION
---------------------

Completing the external part of the density      ... done
Storing the unrelaxed density                    ... done

Calculating G(D)                                 ... done
Completing the Lagrangian                        ... done
Solving the Z-vector equations                   ... 

------------------------------------------------------------------------------
                           ORCA CP-SCF CALCULATION
------------------------------------------------------------------------------

Input orbitals are from        ... dsgdb9nsd_119026.gbw
Input Perturbation             ... dsgdb9nsd_119026.pin.tmp
Wavefunction output            ... dsgdb9nsd_119026.pout.tmp
Perturbation mode              ... Real perturbation
Solver                         ... POPLE
Max. number of iterations      ... 128
Convergence tolerance          ... 1.000e-08
Integral handling              ... Direct
Number of perturbations        ... 1
Number of operators            ... 1
Orbital ranges used for CP-SCF:
 Operator 0:  Orbitals   0... 33  to  34...338
Variables per vector in CP-SCF ... 10370
Number of vectors sought       ... 1
     CP-SCF ITERATION   0: 
     CP-SCF ITERATION   1:      0.001037875
     CP-SCF ITERATION   2:      0.000206169
     CP-SCF ITERATION   3:      0.000014693
     CP-SCF ITERATION   4:      0.000002431
     CP-SCF ITERATION   5:      0.000000237
     CP-SCF ITERATION   6:      0.000000047
     CP-SCF ITERATION   7:      0.000000013
     CP-SCF ITERATION   8:      0.000000002
done
Finalizing the relaxed density                   ... done
Transforming P to the AO basis                   ... done
Storing the relaxed density                      ... done

                *********************************************
                * UNRELAXED MP2 DENSITY POPULATION ANALYSIS *
                *********************************************

------------------------------------------------------------------------------
                           ORCA POPULATION ANALYSIS
------------------------------------------------------------------------------
Input electron density              ... dsgdb9nsd_119026.pmp2ur
BaseName (.gbw .S,...)              ... dsgdb9nsd_119026

                    ********************************
                    * MULLIKEN POPULATION ANALYSIS *
                    ********************************

-----------------------
MULLIKEN ATOMIC CHARGES
-----------------------
   0 C :   -0.143380
   1 O :   -0.387769
   2 C :   -0.013491
   3 C :    0.205774
   4 C :   -0.033789
   5 C :   -0.189558
   6 N :   -0.156663
   7 C :   -0.146939
   8 N :   -0.452753
   9 H :    0.107039
  10 H :    0.125223
  11 H :    0.100135
  12 H :    0.122523
  13 H :    0.082723
  14 H :    0.147169
  15 H :    0.154239
  16 H :    0.105752
  17 H :    0.137005
  18 H :    0.236759
Sum of atomic charges:    0.0000000

--------------------------------
MULLIKEN REDUCED ORBITAL CHARGES
--------------------------------
  0 C s       :     3.213673  s :     3.213673
      pz      :     1.050281  p :     2.777966
      px      :     1.047414
      py      :     0.680271
      dz2     :     0.024901  d :     0.138875
      dxz     :     0.016622
      dyz     :     0.033113
      dx2y2   :     0.022341
      dxy     :     0.041898
      f0      :     0.001574  f :     0.012865
      f+1     :     0.001580
      f-1     :     0.001657
      f+2     :     0.001899
      f-2     :     0.000908
      f+3     :     0.002788
      f-3     :     0.002460
  1 O s       :     3.768239  s :     3.768239
      pz      :     1.597299  p :     4.545238
      px      :     1.679978
      py      :     1.267960
      dz2     :     0.012092  d :     0.069363
      dxz     :     0.013003
      dyz     :     0.015994
      dx2y2   :     0.015756
      dxy     :     0.012518
      f0      :     0.000620  f :     0.004929
      f+1     :     0.000619
      f-1     :     0.000685
      f+2     :     0.000711
      f-2     :     0.000732
      f+3     :     0.000737
      f-3     :     0.000826
  2 C s       :     3.194535  s :     3.194535
      pz      :     0.878150  p :     2.634207
      px      :     0.904992
      py      :     0.851066
      dz2     :     0.052862  d :     0.169505
      dxz     :     0.019805
      dyz     :     0.029308
      dx2y2   :     0.038668
      dxy     :     0.028862
      f0      :     0.002002  f :     0.015244
      f+1     :     0.002374
      f-1     :     0.002252
      f+2     :     0.002642
      f-2     :     0.001730
      f+3     :     0.001946
      f-3     :     0.002298
  3 C s       :     3.011877  s :     3.011877
      pz      :     0.887236  p :     2.548888
      px      :     0.828154
      py      :     0.833498
      dz2     :     0.047726  d :     0.214280
      dxz     :     0.037460
      dyz     :     0.040455
      dx2y2   :     0.045841
      dxy     :     0.042798
      f0      :     0.002752  f :     0.019181
      f+1     :     0.002946
      f-1     :     0.002841
      f+2     :     0.002592
      f-2     :     0.002502
      f+3     :     0.002732
      f-3     :     0.002817
  4 C s       :     3.051050  s :     3.051050
      pz      :     0.819494  p :     2.849842
      px      :     0.990043
      py      :     1.040305
      dz2     :     0.034750  d :     0.123249
      dxz     :     0.020006
      dyz     :     0.022733
      dx2y2   :     0.031027
      dxy     :     0.014734
      f0      :     0.001724  f :     0.009648
      f+1     :     0.001757
      f-1     :     0.001384
      f+2     :     0.001283
      f-2     :     0.001024
      f+3     :     0.001199
      f-3     :     0.001278
  5 C s       :     3.256029  s :     3.256029
      pz      :     1.001508  p :     2.788836
      px      :     0.893509
      py      :     0.893818
      dz2     :     0.030768  d :     0.124496
      dxz     :     0.035964
      dyz     :     0.038947
      dx2y2   :     0.010733
      dxy     :     0.008085
      f0      :     0.005668  f :     0.020197
      f+1     :     0.004501
      f-1     :     0.005191
      f+2     :     0.002104
      f-2     :     0.001966
      f+3     :     0.000394
      f-3     :     0.000373
  6 N s       :     3.682954  s :     3.682954
      pz      :     1.255004  p :     3.391119
      px      :     1.078179
      py      :     1.057935
      dz2     :     0.018480  d :     0.076893
      dxz     :     0.021002
      dyz     :     0.023074
      dx2y2   :     0.007125
      dxy     :     0.007212
      f0      :     0.001313  f :     0.005697
      f+1     :     0.001117
      f-1     :     0.001279
      f+2     :     0.000679
      f-2     :     0.000681
      f+3     :     0.000314
      f-3     :     0.000314
  7 C s       :     3.215914  s :     3.215914
      pz      :     0.872735  p :     2.791359
      px      :     0.911443
      py      :     1.007181
      dz2     :     0.023872  d :     0.125627
      dxz     :     0.023795
      dyz     :     0.032081
      dx2y2   :     0.019458
      dxy     :     0.026421
      f0      :     0.002358  f :     0.014039
      f+1     :     0.002816
      f-1     :     0.001941
      f+2     :     0.002378
      f-2     :     0.001939
      f+3     :     0.001357
      f-3     :     0.001250
  8 N s       :     3.613860  s :     3.613860
      pz      :     1.217695  p :     3.734979
      px      :     1.041160
      py      :     1.476124
      dz2     :     0.016827  d :     0.096783
      dxz     :     0.023079
      dyz     :     0.014484
      dx2y2   :     0.018147
      dxy     :     0.024246
      f0      :     0.000847  f :     0.007131
      f+1     :     0.001186
      f-1     :     0.000645
      f+2     :     0.001088
      f-2     :     0.000944
      f+3     :     0.001208
      f-3     :     0.001213
  9 H s       :     0.869323  s :     0.869323
      pz      :     0.013495  p :     0.023638
      px      :     0.006326
      py      :     0.003816
 10 H s       :     0.850471  s :     0.850471
      pz      :     0.010110  p :     0.024306
      px      :     0.008789
      py      :     0.005407
 11 H s       :     0.876266  s :     0.876266
      pz      :     0.004565  p :     0.023600
      px      :     0.013217
      py      :     0.005817
 12 H s       :     0.852870  s :     0.852870
      pz      :     0.014953  p :     0.024606
      px      :     0.005107
      py      :     0.004546
 13 H s       :     0.893020  s :     0.893020
      pz      :     0.003926  p :     0.024257
      px      :     0.014874
      py      :     0.005457
 14 H s       :     0.827417  s :     0.827417
      pz      :     0.004352  p :     0.025415
      px      :     0.016006
      py      :     0.005056
 15 H s       :     0.819913  s :     0.819913
      pz      :     0.005221  p :     0.025848
      px      :     0.004843
      py      :     0.015784
 16 H s       :     0.868384  s :     0.868384
      pz      :     0.005557  p :     0.025863
      px      :     0.006768
      py      :     0.013539
 17 H s       :     0.837129  s :     0.837129
      pz      :     0.010273  p :     0.025866
      px      :     0.004669
      py      :     0.010924
 18 H s       :     0.724083  s :     0.724083
      pz      :     0.008414  p :     0.039158
      px      :     0.014087
      py      :     0.016656


                     *******************************
                     * LOEWDIN POPULATION ANALYSIS *
                     *******************************

----------------------
LOEWDIN ATOMIC CHARGES
----------------------
   0 C :   -0.317622
   1 O :    0.105800
   2 C :   -0.258685
   3 C :   -0.298897
   4 C :   -0.178007
   5 C :   -0.171489
   6 N :    0.029923
   7 C :   -0.213292
   8 N :    0.003168
   9 H :    0.100155
  10 H :    0.107610
  11 H :    0.098143
  12 H :    0.130116
  13 H :    0.122563
  14 H :    0.160429
  15 H :    0.168778
  16 H :    0.117949
  17 H :    0.124150
  18 H :    0.169209

-------------------------------
LOEWDIN REDUCED ORBITAL CHARGES
-------------------------------
  0 C s       :     2.850760  s :     2.850760
      pz      :     1.074083  p :     2.958433
      px      :     1.075615
      py      :     0.808735
      dz2     :     0.071948  d :     0.443938
      dxz     :     0.044122
      dyz     :     0.109165
      dx2y2   :     0.089069
      dxy     :     0.129636
      f0      :     0.007143  f :     0.064490
      f+1     :     0.003964
      f-1     :     0.009007
      f+2     :     0.011813
      f-2     :     0.004300
      f+3     :     0.014886
      f-3     :     0.013378
  1 O s       :     3.266448  s :     3.266448
      pz      :     1.568290  p :     4.479924
      px      :     1.604180
      py      :     1.307454
      dz2     :     0.024170  d :     0.138139
      dxz     :     0.019581
      dyz     :     0.032805
      dx2y2   :     0.033010
      dxy     :     0.028574
      f0      :     0.001193  f :     0.009689
      f+1     :     0.001048
      f-1     :     0.001388
      f+2     :     0.001849
      f-2     :     0.001230
      f+3     :     0.001651
      f-3     :     0.001331
  2 C s       :     2.780619  s :     2.780619
      pz      :     0.930865  p :     2.829911
      px      :     0.954405
      py      :     0.944640
      dz2     :     0.159709  d :     0.568113
      dxz     :     0.082419
      dyz     :     0.094802
      dx2y2   :     0.135748
      dxy     :     0.095434
      f0      :     0.008081  f :     0.080041
      f+1     :     0.012387
      f-1     :     0.012699
      f+2     :     0.014709
      f-2     :     0.012482
      f+3     :     0.009373
      f-3     :     0.010311
  3 C s       :     2.685825  s :     2.685825
      pz      :     0.960497  p :     2.810910
      px      :     0.881626
      py      :     0.968786
      dz2     :     0.149256  d :     0.710021
      dxz     :     0.134352
      dyz     :     0.141532
      dx2y2   :     0.141289
      dxy     :     0.143593
      f0      :     0.012506  f :     0.092140
      f+1     :     0.016016
      f-1     :     0.013691
      f+2     :     0.011061
      f-2     :     0.011422
      f+3     :     0.014534
      f-3     :     0.012911
  4 C s       :     2.755131  s :     2.755131
      pz      :     0.964387  p :     2.966573
      px      :     0.998952
      py      :     1.003233
      dz2     :     0.132921  d :     0.412379
      dxz     :     0.068937
      dyz     :     0.079278
      dx2y2   :     0.097727
      dxy     :     0.033516
      f0      :     0.008105  f :     0.043925
      f+1     :     0.009063
      f-1     :     0.007581
      f+2     :     0.005396
      f-2     :     0.006026
      f+3     :     0.003599
      f-3     :     0.004154
  5 C s       :     2.827698  s :     2.827698
      pz      :     1.129185  p :     2.817537
      px      :     0.858381
      py      :     0.829972
      dz2     :     0.154532  d :     0.459561
      dxz     :     0.132371
      dyz     :     0.130086
      dx2y2   :     0.024605
      dxy     :     0.017967
      f0      :     0.021292  f :     0.066692
      f+1     :     0.017898
      f-1     :     0.015443
      f+2     :     0.005746
      f-2     :     0.005182
      f+3     :     0.000591
      f-3     :     0.000541
  6 N s       :     3.297126  s :     3.297126
      pz      :     1.430730  p :     3.510611
      px      :     1.059771
      py      :     1.020109
      dz2     :     0.048684  d :     0.142755
      dxz     :     0.039765
      dyz     :     0.036738
      dx2y2   :     0.008736
      dxy     :     0.008832
      f0      :     0.006163  f :     0.019584
      f+1     :     0.005254
      f-1     :     0.004190
      f+2     :     0.001616
      f-2     :     0.001641
      f+3     :     0.000359
      f-3     :     0.000361
  7 C s       :     2.784075  s :     2.784075
      pz      :     0.970582  p :     2.915690
      px      :     0.925429
      py      :     1.019680
      dz2     :     0.093812  d :     0.451445
      dxz     :     0.094094
      dyz     :     0.120697
      dx2y2   :     0.059224
      dxy     :     0.083617
      f0      :     0.011012  f :     0.062082
      f+1     :     0.016449
      f-1     :     0.006538
      f+2     :     0.008791
      f-2     :     0.008257
      f+3     :     0.005440
      f-3     :     0.005597
  8 N s       :     3.088321  s :     3.088321
      pz      :     1.176369  p :     3.674270
      px      :     1.098791
      py      :     1.399111
      dz2     :     0.043717  d :     0.214035
      dxz     :     0.046207
      dyz     :     0.024960
      dx2y2   :     0.039177
      dxy     :     0.059974
      f0      :     0.002044  f :     0.020205
      f+1     :     0.004426
      f-1     :     0.001264
      f+2     :     0.002728
      f-2     :     0.003087
      f+3     :     0.003999
      f-3     :     0.002657
  9 H s       :     0.835885  s :     0.835885
      pz      :     0.036407  p :     0.063960
      px      :     0.017735
      py      :     0.009818
 10 H s       :     0.828315  s :     0.828315
      pz      :     0.027181  p :     0.064075
      px      :     0.023573
      py      :     0.013322
 11 H s       :     0.838168  s :     0.838168
      pz      :     0.013379  p :     0.063689
      px      :     0.035700
      py      :     0.014610
 12 H s       :     0.806697  s :     0.806697
      pz      :     0.036764  p :     0.063187
      px      :     0.014437
      py      :     0.011986
 13 H s       :     0.815932  s :     0.815932
      pz      :     0.011130  p :     0.061505
      px      :     0.036573
      py      :     0.013802
 14 H s       :     0.776587  s :     0.776587
      pz      :     0.011343  p :     0.062984
      px      :     0.037184
      py      :     0.014457
 15 H s       :     0.767414  s :     0.767414
      pz      :     0.013073  p :     0.063808
      px      :     0.013407
      py      :     0.037328
 16 H s       :     0.816436  s :     0.816436
      pz      :     0.013827  p :     0.065615
      px      :     0.017283
      py      :     0.034506
 17 H s       :     0.807596  s :     0.807596
      pz      :     0.025119  p :     0.068254
      px      :     0.013234
      py      :     0.029901
 18 H s       :     0.716515  s :     0.716515
      pz      :     0.025597  p :     0.114276
      px      :     0.034055
      py      :     0.054625


                      *****************************
                      * MAYER POPULATION ANALYSIS *
                      *****************************

  NA   - Mulliken gross atomic population
  ZA   - Total nuclear charge
  QA   - Mulliken gross atomic charge
  VA   - Mayer's total valence
  BVA  - Mayer's bonded valence
  FA   - Mayer's free valence

  ATOM       NA         ZA         QA         VA         BVA        FA
  0 C      6.1434     6.0000    -0.1434     4.0052     3.7203     0.2849
  1 O      8.3878     8.0000    -0.3878     2.1013     1.6792     0.4221
  2 C      6.0135     6.0000    -0.0135     4.0049     3.6961     0.3088
  3 C      5.7942     6.0000     0.2058     3.9352     3.5785     0.3566
  4 C      6.0338     6.0000    -0.0338     3.9296     3.6193     0.3103
  5 C      6.1896     6.0000    -0.1896     4.1363     3.6972     0.4391
  6 N      7.1567     7.0000    -0.1567     3.2348     2.7552     0.4796
  7 C      6.1469     6.0000    -0.1469     4.0603     3.7295     0.3308
  8 N      7.4528     7.0000    -0.4528     3.1202     2.6981     0.4222
  9 H      0.8930     1.0000     0.1070     0.9762     0.9268     0.0494
 10 H      0.8748     1.0000     0.1252     0.9765     0.9297     0.0468
 11 H      0.8999     1.0000     0.1001     0.9748     0.9251     0.0497
 12 H      0.8775     1.0000     0.1225     0.9774     0.9262     0.0512
 13 H      0.9173     1.0000     0.0827     0.9771     0.9241     0.0530
 14 H      0.8528     1.0000     0.1472     0.9753     0.9257     0.0496
 15 H      0.8458     1.0000     0.1542     0.9821     0.9327     0.0494
 16 H      0.8942     1.0000     0.1058     0.9734     0.9240     0.0494
 17 H      0.8630     1.0000     0.1370     0.9754     0.9263     0.0491
 18 H      0.7632     1.0000     0.2368     0.9614     0.9090     0.0525

  Mayer bond orders larger than 0.1
B(  0-C ,  1-O ) :   0.8632 B(  0-C ,  9-H ) :   0.9489 B(  0-C , 10-H ) :   0.9476 
B(  0-C , 11-H ) :   0.9494 B(  1-O ,  2-C ) :   0.8770 B(  2-C ,  3-C ) :   0.9319 
B(  2-C , 12-H ) :   0.9397 B(  2-C , 13-H ) :   0.9330 B(  3-C ,  4-C ) :   0.8503 
B(  3-C ,  7-C ) :   0.9461 B(  3-C ,  8-N ) :   0.8963 B(  4-C ,  5-C ) :   0.9021 
B(  4-C , 14-H ) :   0.9371 B(  4-C , 15-H ) :   0.9176 B(  5-C ,  6-N ) :   2.7553 
B(  7-C ,  8-N ) :   0.8907 B(  7-C , 16-H ) :   0.9280 B(  7-C , 17-H ) :   0.9195 
B(  8-N , 18-H ) :   0.8785 


                *******************************************
[...]
      f0      :     0.001926  f :     0.014537
      f+1     :     0.002275
      f-1     :     0.002127
      f+2     :     0.002536
      f-2     :     0.001671
      f+3     :     0.001927
      f-3     :     0.002075
  3 C s       :     3.069684  s :     3.069684
      pz      :     0.877523  p :     2.564644
      px      :     0.837002
      py      :     0.850120
      dz2     :     0.044108  d :     0.204290
      dxz     :     0.035836
      dyz     :     0.038755
      dx2y2   :     0.041022
      dxy     :     0.044569
      f0      :     0.002605  f :     0.018285
      f+1     :     0.002803
      f-1     :     0.002677
      f+2     :     0.002542
      f-2     :     0.002351
      f+3     :     0.002695
      f-3     :     0.002613
  4 C s       :     3.103955  s :     3.103955
      pz      :     0.852627  p :     2.910458
      px      :     1.009988
      py      :     1.047843
      dz2     :     0.031921  d :     0.111996
      dxz     :     0.018779
      dyz     :     0.021415
      dx2y2   :     0.027103
      dxy     :     0.012778
      f0      :     0.001608  f :     0.009190
      f+1     :     0.001631
      f-1     :     0.001368
      f+2     :     0.001281
      f-2     :     0.000941
      f+3     :     0.001136
      f-3     :     0.001225
  5 C s       :     3.224911  s :     3.224911
      pz      :     1.032043  p :     2.858377
      px      :     0.914053
      py      :     0.912281
      dz2     :     0.026532  d :     0.101796
      dxz     :     0.028237
      dyz     :     0.030197
      dx2y2   :     0.009749
      dxy     :     0.007082
      f0      :     0.005343  f :     0.018984
      f+1     :     0.004248
      f-1     :     0.004818
      f+2     :     0.001967
      f-2     :     0.001854
      f+3     :     0.000387
      f-3     :     0.000368
  6 N s       :     3.610017  s :     3.610017
      pz      :     1.247720  p :     3.374441
      px      :     1.073406
      py      :     1.053316
      dz2     :     0.016676  d :     0.068072
      dxz     :     0.018275
      dyz     :     0.019619
      dx2y2   :     0.006735
      dxy     :     0.006767
      f0      :     0.001169  f :     0.005213
      f+1     :     0.001005
      f-1     :     0.001144
      f+2     :     0.000637
      f-2     :     0.000635
      f+3     :     0.000312
      f-3     :     0.000311
  7 C s       :     3.231195  s :     3.231195
      pz      :     0.875695  p :     2.833786
      px      :     0.929094
      py      :     1.028997
      dz2     :     0.021802  d :     0.114063
      dxz     :     0.021219
      dyz     :     0.028052
      dx2y2   :     0.016800
      dxy     :     0.026189
      f0      :     0.002247  f :     0.013385
      f+1     :     0.002726
      f-1     :     0.001839
      f+2     :     0.002214
      f-2     :     0.001922
      f+3     :     0.001237
      f-3     :     0.001199
  8 N s       :     3.610640  s :     3.610640
      pz      :     1.201878  p :     3.679971
      px      :     1.030911
      py      :     1.447182
      dz2     :     0.016574  d :     0.091085
      dxz     :     0.019849
      dyz     :     0.014434
      dx2y2   :     0.017917
      dxy     :     0.022310
      f0      :     0.000824  f :     0.006912
      f+1     :     0.001148
      f-1     :     0.000632
      f+2     :     0.001041
      f-2     :     0.000918
      f+3     :     0.001175
      f-3     :     0.001174
  9 H s       :     0.853876  s :     0.853876
      pz      :     0.012294  p :     0.022575
      px      :     0.006283
      py      :     0.003998
 10 H s       :     0.833328  s :     0.833328
      pz      :     0.009448  p :     0.023158
      px      :     0.008387
      py      :     0.005323
 11 H s       :     0.859627  s :     0.859627
      pz      :     0.004809  p :     0.022557
      px      :     0.012035
      py      :     0.005712
 12 H s       :     0.841331  s :     0.841331
      pz      :     0.013503  p :     0.023400
      px      :     0.005147
      py      :     0.004750
 13 H s       :     0.876195  s :     0.876195
      pz      :     0.004185  p :     0.023149
      px      :     0.013474
      py      :     0.005490
 14 H s       :     0.814641  s :     0.814641
      pz      :     0.004610  p :     0.024254
      px      :     0.014429
      py      :     0.005216
 15 H s       :     0.809681  s :     0.809681
      pz      :     0.005289  p :     0.024630
      px      :     0.005040
      py      :     0.014300
 16 H s       :     0.853151  s :     0.853151
      pz      :     0.005612  p :     0.024794
      px      :     0.006774
      py      :     0.012409
 17 H s       :     0.827963  s :     0.827963
      pz      :     0.009599  p :     0.024813
      px      :     0.005018
      py      :     0.010196
 18 H s       :     0.727004  s :     0.727004
      pz      :     0.008664  p :     0.038360
      px      :     0.013665
      py      :     0.016030


                     *******************************
                     * LOEWDIN POPULATION ANALYSIS *
                     *******************************

----------------------
LOEWDIN ATOMIC CHARGES
----------------------
   0 C :   -0.350703
   1 O :    0.136652
   2 C :   -0.287946
   3 C :   -0.313750
   4 C :   -0.200934
   5 C :   -0.187347
   6 N :    0.057360
   7 C :   -0.236424
   8 N :    0.017995
   9 H :    0.106282
  10 H :    0.115502
  11 H :    0.104654
  12 H :    0.136357
  13 H :    0.129912
  14 H :    0.168302
  15 H :    0.175928
  16 H :    0.125598
  17 H :    0.129688
  18 H :    0.172874

-------------------------------
LOEWDIN REDUCED ORBITAL CHARGES
-------------------------------
  0 C s       :     2.858237  s :     2.858237
      pz      :     1.089073  p :     2.996085
      px      :     1.091727
      py      :     0.815285
      dz2     :     0.068619  d :     0.433742
      dxz     :     0.041387
      dyz     :     0.109338
      dx2y2   :     0.084914
      dxy     :     0.129484
      f0      :     0.006972  f :     0.062639
      f+1     :     0.003802
      f-1     :     0.008720
      f+2     :     0.011542
      f-2     :     0.004153
      f+3     :     0.014221
      f-3     :     0.013229
  1 O s       :     3.270675  s :     3.270675
      pz      :     1.552756  p :     4.442578
      px      :     1.588197
      py      :     1.301625
      dz2     :     0.024531  d :     0.140190
      dxz     :     0.019489
      dyz     :     0.033433
      dx2y2   :     0.033132
      dxy     :     0.029605
      f0      :     0.001213  f :     0.009905
      f+1     :     0.001069
      f-1     :     0.001428
      f+2     :     0.001887
      f-2     :     0.001260
      f+3     :     0.001686
      f-3     :     0.001362
  2 C s       :     2.788657  s :     2.788657
      pz      :     0.940167  p :     2.858303
      px      :     0.967226
      py      :     0.950910
      dz2     :     0.158383  d :     0.562826
      dxz     :     0.080847
      dyz     :     0.094225
      dx2y2   :     0.133455
      dxy     :     0.095917
      f0      :     0.007707  f :     0.078159
      f+1     :     0.012058
      f-1     :     0.012428
      f+2     :     0.014279
      f-2     :     0.012508
      f+3     :     0.009218
      f-3     :     0.009962
  3 C s       :     2.693121  s :     2.693121
      pz      :     0.961530  p :     2.820548
      px      :     0.889727
      py      :     0.969292
      dz2     :     0.148925  d :     0.708948
      dxz     :     0.132861
      dyz     :     0.142198
      dx2y2   :     0.138901
      dxy     :     0.146062
      f0      :     0.012592  f :     0.091134
      f+1     :     0.015502
      f-1     :     0.013641
      f+2     :     0.011001
      f-2     :     0.011138
      f+3     :     0.014430
      f-3     :     0.012829
  4 C s       :     2.761792  s :     2.761792
      pz      :     0.976638  p :     2.990632
      px      :     1.007044
      py      :     1.006950
      dz2     :     0.128688  d :     0.404563
      dxz     :     0.068928
      dyz     :     0.080678
      dx2y2   :     0.093720
      dxy     :     0.032549
      f0      :     0.007965  f :     0.043947
      f+1     :     0.008910
      f-1     :     0.007782
      f+2     :     0.005476
      f-2     :     0.006186
      f+3     :     0.003518
      f-3     :     0.004110
  5 C s       :     2.832616  s :     2.832616
      pz      :     1.121502  p :     2.844333
      px      :     0.874702
      py      :     0.848129
      dz2     :     0.154342  d :     0.443681
      dxz     :     0.126631
      dyz     :     0.121891
      dx2y2   :     0.023496
      dxy     :     0.017321
      f0      :     0.021565  f :     0.066717
      f+1     :     0.018188
      f-1     :     0.015124
      f+2     :     0.005571
      f-2     :     0.005149
      f+3     :     0.000575
      f-3     :     0.000544
  6 N s       :     3.297454  s :     3.297454
      pz      :     1.418518  p :     3.486561
      px      :     1.053008
      py      :     1.015035
      dz2     :     0.048409  d :     0.138639
      dxz     :     0.038469
      dyz     :     0.034698
      dx2y2   :     0.008517
      dxy     :     0.008547
      f0      :     0.006280  f :     0.019986
      f+1     :     0.005357
      f-1     :     0.004299
      f+2     :     0.001658
      f-2     :     0.001670
      f+3     :     0.000361
      f-3     :     0.000362
  7 C s       :     2.791801  s :     2.791801
      pz      :     0.973263  p :     2.939947
      px      :     0.936022
      py      :     1.030662
      dz2     :     0.092203  d :     0.443704
      dxz     :     0.091720
      dyz     :     0.119263
      dx2y2   :     0.056763
      dxy     :     0.083756
      f0      :     0.010957  f :     0.060972
      f+1     :     0.015980
      f-1     :     0.006552
      f+2     :     0.008750
      f-2     :     0.007983
      f+3     :     0.005328
      f-3     :     0.005422
  8 N s       :     3.094690  s :     3.094690
      pz      :     1.172766  p :     3.655210
      px      :     1.098153
      py      :     1.384291
      dz2     :     0.043432  d :     0.211927
      dxz     :     0.044633
      dyz     :     0.025316
      dx2y2   :     0.039428
      dxy     :     0.059117
      f0      :     0.002042  f :     0.020178
      f+1     :     0.004354
      f-1     :     0.001259
      f+2     :     0.002771
      f-2     :     0.003109
      f+3     :     0.003969
      f-3     :     0.002675
  9 H s       :     0.828846  s :     0.828846
      pz      :     0.036343  p :     0.064872
      px      :     0.018076
      py      :     0.010452
 10 H s       :     0.819828  s :     0.819828
      pz      :     0.027170  p :     0.064670
      px      :     0.023746
      py      :     0.013754
 11 H s       :     0.830691  s :     0.830691
      pz      :     0.013854  p :     0.064654
      px      :     0.035600
      py      :     0.015200
 12 H s       :     0.799507  s :     0.799507
      pz      :     0.036736  p :     0.064135
      px      :     0.014830
      py      :     0.012569
 13 H s       :     0.807224  s :     0.807224
      pz      :     0.011682  p :     0.062865
      px      :     0.036809
      py      :     0.014374
 14 H s       :     0.767963  s :     0.767963
      pz      :     0.012103  p :     0.063734
      px      :     0.036716
      py      :     0.014916
 15 H s       :     0.759661  s :     0.759661
      pz      :     0.013613  p :     0.064411
      px      :     0.013948
      py      :     0.036849
 16 H s       :     0.807963  s :     0.807963
      pz      :     0.014332  p :     0.066439
      px      :     0.017765
      py      :     0.034341
 17 H s       :     0.801147  s :     0.801147
      pz      :     0.025251  p :     0.069165
      px      :     0.014071
      py      :     0.029843
 18 H s       :     0.712560  s :     0.712560
      pz      :     0.025883  p :     0.114566
      px      :     0.033522
      py      :     0.055161


                      *****************************
                      * MAYER POPULATION ANALYSIS *
                      *****************************

  NA   - Mulliken gross atomic population
  ZA   - Total nuclear charge
  QA   - Mulliken gross atomic charge
  VA   - Mayer's total valence
  BVA  - Mayer's bonded valence
  FA   - Mayer's free valence

  ATOM       NA         ZA         QA         VA         BVA        FA
  0 C      6.2245     6.0000    -0.2245     4.0198     3.7374     0.2824
  1 O      8.3202     8.0000    -0.3202     2.2297     1.8173     0.4124
  2 C      6.0715     6.0000    -0.0715     4.0137     3.7091     0.3046
  3 C      5.8569     6.0000     0.1431     4.0036     3.6532     0.3505
  4 C      6.1356     6.0000    -0.1356     3.9812     3.6742     0.3070
  5 C      6.2041     6.0000    -0.2041     4.2642     3.8377     0.4265
  6 N      7.0577     7.0000    -0.0577     3.3576     2.8895     0.4681
  7 C      6.1924     6.0000    -0.1924     4.0604     3.7328     0.3276
  8 N      7.3886     7.0000    -0.3886     3.1718     2.7578     0.4139
  9 H      0.8765     1.0000     0.1235     0.9690     0.9206     0.0484
 10 H      0.8565     1.0000     0.1435     0.9697     0.9237     0.0460
 11 H      0.8822     1.0000     0.1178     0.9676     0.9189     0.0487
 12 H      0.8647     1.0000     0.1353     0.9675     0.9175     0.0499
 13 H      0.8993     1.0000     0.1007     0.9668     0.9153     0.0515
 14 H      0.8389     1.0000     0.1611     0.9656     0.9171     0.0486
 15 H      0.8343     1.0000     0.1657     0.9756     0.9271     0.0485
 16 H      0.8779     1.0000     0.1221     0.9651     0.9165     0.0486
 17 H      0.8528     1.0000     0.1472     0.9750     0.9270     0.0480
 18 H      0.7654     1.0000     0.2346     0.9629     0.9113     0.0517

  Mayer bond orders larger than 0.1
B(  0-C ,  1-O ) :   0.9084 B(  0-C ,  9-H ) :   0.9360 B(  0-C , 10-H ) :   0.9379 
B(  0-C , 11-H ) :   0.9368 B(  1-O ,  2-C ) :   0.9209 B(  2-C ,  3-C ) :   0.9422 
B(  2-C , 12-H ) :   0.9196 B(  2-C , 13-H ) :   0.9125 B(  3-C ,  4-C ) :   0.8680 
B(  3-C ,  7-C ) :   0.9438 B(  3-C ,  8-N ) :   0.9214 B(  4-C ,  5-C ) :   0.9419 
B(  4-C , 14-H ) :   0.9189 B(  4-C , 15-H ) :   0.8962 B(  5-C ,  6-N ) :   2.8646 
B(  7-C ,  8-N ) :   0.9162 B(  7-C , 16-H ) :   0.9135 B(  7-C , 17-H ) :   0.9063 
B(  8-N , 18-H ) :   0.8678 


-------
TIMINGS
-------

Total time                :  864.694 sec
Integral trafo            :    6.492 sec (  0.8%)
FC preparation            :    4.053 sec (  0.5%)
I/O of integrals          :    0.053 sec (  0.0%)
K(i,j) Operators          :    9.455 sec (  1.1%)
T(i,j) pair energies      :    0.866 sec (  0.1%)
V-calculation             :    0.018 sec (  0.0%)
V**(-1/2)                 :    0.120 sec (  0.0%)
Gamma(ia|P)               :    9.480 sec (  1.1%)
Gamma-Trafo               :    1.487 sec (  0.2%)
D(virtual)                :    3.601 sec (  0.4%)
D(internal)               :    3.416 sec (  0.4%)
W(virtual)                :    0.000 sec (  0.0%)
W(internal)               :    0.000 sec (  0.0%)
L(virtual)                :   10.445 sec (  1.2%)
L(internal)               :    0.202 sec (  0.0%)
G(D)                      :   93.197 sec ( 10.8%)
G(Z)                      :    0.000 sec (  0.0%)
Z-Vector Solution         :  721.065 sec ( 83.4%)
3-Index Derivative        :    0.000 sec (  0.0%)
2-Index Derivative        :    0.000 sec (  0.0%)
Separable Gradient (RIJ)  :    0.000 sec (  0.0%)
Separable Gradient (X)    :    0.000 sec (  0.0%)


---------------------------------------
MP2 TOTAL ENERGY:     -418.478430757 Eh
---------------------------------------

-------------------------   --------------------
FINAL SINGLE POINT ENERGY      -418.478430756828
-------------------------   --------------------


                            ***************************************
                            *     ORCA property calculations      *
                            ***************************************

                                    ---------------------
                                    Active property flags
                                    ---------------------
   (+) Dipole Moment


------------------------------------------------------------------------------
                       ORCA ELECTRIC PROPERTIES CALCULATION
------------------------------------------------------------------------------

Dipole Moment Calculation                       ... on
Quadrupole Moment Calculation                   ... off
Polarizability Calculation                      ... off
GBWName                                         ... dsgdb9nsd_119026.gbw
Electron density file                           ... dsgdb9nsd_119026.scfp.tmp

-------------
DIPOLE MOMENT
-------------
                                X             Y             Z
Electronic contribution:     -0.32155      -5.28621      -4.50395
Nuclear contribution   :      1.21931       6.20526       5.96333
                        -----------------------------------------
Total Dipole Moment    :      0.89776       0.91905       1.45939
                        -----------------------------------------
Magnitude (a.u.)       :      1.94434
Magnitude (Debye)      :      4.94211


                         *** MP2 UNRELAXED DENSITY ***

------------------------------------------------------------------------------
                       ORCA ELECTRIC PROPERTIES CALCULATION
------------------------------------------------------------------------------

Dipole Moment Calculation                       ... on
Quadrupole Moment Calculation                   ... off
Polarizability Calculation                      ... off
GBWName                                         ... dsgdb9nsd_119026.gbw
Electron density file                           ... dsgdb9nsd_119026.pmp2ur

-------------
DIPOLE MOMENT
-------------
                                X             Y             Z
Electronic contribution:     -0.35730      -5.29645      -4.52364
Nuclear contribution   :      1.21931       6.20526       5.96333
                        -----------------------------------------
Total Dipole Moment    :      0.86201       0.90881       1.43969
                        -----------------------------------------
Magnitude (a.u.)       :      1.90833
Magnitude (Debye)      :      4.85058


                           *** MP2 RELAXED DENSITY ***

------------------------------------------------------------------------------
                       ORCA ELECTRIC PROPERTIES CALCULATION
------------------------------------------------------------------------------

Dipole Moment Calculation                       ... on
Quadrupole Moment Calculation                   ... off
Polarizability Calculation                      ... off
GBWName                                         ... dsgdb9nsd_119026.gbw
Electron density file                           ... dsgdb9nsd_119026.pmp2re

-------------
DIPOLE MOMENT
-------------
                                X             Y             Z
Electronic contribution:     -0.42478      -5.31519      -4.61695
Nuclear contribution   :      1.21931       6.20526       5.96333
                        -----------------------------------------
Total Dipole Moment    :      0.79452       0.89006       1.34638
                        -----------------------------------------
Magnitude (a.u.)       :      1.79895
Magnitude (Debye)      :      4.57257


Timings for individual modules:

Sum of individual times         ...     1027.273 sec (=  17.121 min)
GTO integral calculation        ...        0.540 sec (=   0.009 min)   0.1 %
SCF iterations                  ...      161.888 sec (=   2.698 min)  15.8 %
MP2 module                      ...      864.846 sec (=  14.414 min)  84.2 %
                             ****ORCA TERMINATED NORMALLY****
TOTAL RUN TIME: 0 days 0 hours 17 minutes 7 seconds 776 msec
