
                                 *****************
                                 * O   R   C   A *
                                 *****************

           --- An Ab Initio, DFT and Semiempirical electronic structure package ---

                  #######################################################
                  #                        -***-                        #
                  #  Department of molecular theory and spectroscopy    #
                  #              Directorship: Frank Neese              #
                  # Max Planck Institute for Chemical Energy Conversion #
                  #                  D-45470 Muelheim/Ruhr              #
                  #                       Germany                       #
                  #                                                     #
                  #                  All rights reserved                #
                  #                        -***-                        #
                  #######################################################


                         Program Version 3.0.3 - RELEASE   -


 With contributions from (in alphabetic order):
   Ute Becker             : Parallelization
   Dmytro Bykov           : SCF Hessian
   Dmitry Ganyushin       : Spin-Orbit,Spin-Spin,Magnetic field MRCI
   Andreas Hansen         : Spin unrestricted coupled pair/coupled cluster methods
   Dimitrios Liakos       : Extrapolation schemes; parallel MDCI
   Robert Izsak           : Overlap fitted RIJCOSX, COSX-SCS-MP3
   Christian Kollmar      : KDIIS, OOCD, Brueckner-CCSD(T), CCSD density
   Simone Kossmann        : Meta GGA functionals, TD-DFT gradient, OOMP2, MP2 Hessian
   Taras Petrenko         : DFT Hessian,TD-DFT gradient, ASA and ECA modules, normal mode analysis, Resonance Raman, ABS, FL, XAS/XES, NRVS
   Christoph Reimann      : Effective Core Potentials
   Michael Roemelt        : Restricted open shell CIS
   Christoph Riplinger    : Improved optimizer, TS searches, QM/MM, DLPNO-CCSD
   Barbara Sandhoefer     : DKH picture change effects
   Igor Schapiro          : Molecular dynamics
   Kantharuban Sivalingam : CASSCF convergence, NEVPT2
   Boris Wezisla          : Elementary symmetry handling
   Frank Wennmohs         : Technical directorship


 We gratefully acknowledge several colleagues who have allowed us to
 interface, adapt or use parts of their codes:
   Stefan Grimme, W. Hujo, H. Kruse, T. Risthaus : VdW corrections, initial TS optimization,
                                                   DFT functionals, gCP
   Ed Valeev                                     : LibInt (2-el integral package), F12 methods
   Garnet Chan, S. Sharma, R. Olivares           : DMRG
   Ulf Ekstrom                                   : XCFun DFT Library
   Mihaly Kallay                                 : mrcc  (arbitrary order and MRCC methods)
   Andreas Klamt, Michael Diedenhofen            : otool_cosmo (COSMO solvation model)
   Frank Weinhold                                : gennbo (NPA and NBO analysis)
   Christopher J. Cramer and Donald G. Truhlar   : smd solvation model


 Your calculation uses the libint2 library for the computation of 2-el integrals
 For citations please refer to: http://libint.valeyev.net

 This ORCA versions uses:
   CBLAS   interface :  Fast vector & matrix operations
   LAPACKE interface :  Fast linear algebra routines
   SCALAPACK package :  Parallel linear algebra routines


Your calculation utilizes the basis: Ahlrichs-TZV
Cite in your paper:
H - Kr: A. Schaefer, H. Horn and R. Ahlrichs, J. Chem. Phys. 97, 2571 (1992).

The def2-TZV basis will be loaded
Cite in your paper:
 	F. Weigend, R. Ahlrichs, Phys. Chem. Chem. Phys. 2005, 7, 3297.

================================================================================
                                        WARNINGS
                       Please study these warnings very carefully!
================================================================================
Now building the actual basis set


INFO   : the flag for use of LIBINT has been found!

================================================================================
                                       INPUT FILE
================================================================================
NAME = dsgdb9nsd_085069.inp
|  1> ! RI-MP2 RIJK def2-TZVP def2-TZVP/C def2-TZVP/JK TIGHTSCF
|  2> % maxcore 2000
|  3> % mp2 density relaxed end
|  4> *xyz 0 1
|  5>  C       -0.1776450657     1.4920716764     0.0516768287 
|  6>  C        0.0357107825    -0.0378230941    -0.0183365988 
|  7>  C        0.7636404818    -0.4531748968    -1.2720631975 
|  8>  C        1.9405980090    -1.0777746668    -1.2918049970 
|  9>  C        2.7249880803    -1.4369466067    -0.0558304385 
| 10>  O        4.1274713169    -1.3298470175    -0.2686737172 
| 11>  C        2.2655448635    -0.5968682804     1.1531070671 
| 12>  C        0.7507414299    -0.5196152288     1.2461606662 
| 13>  O        0.1405475629    -0.7990819650     2.2507821426 
| 14>  H        0.7776299843     2.0254087511     0.0875593737 
| 15>  H       -0.7208937511     1.8410170252    -0.8319205290 
| 16>  H       -0.7580100689     1.7543133555     0.9403190940 
| 17>  H       -0.9575502643    -0.5046642158    -0.0028738078 
| 18>  H        0.2546259396    -0.2349361411    -2.2090344879 
| 19>  H        2.3958469436    -1.3761811666    -2.2329129493 
| 20>  H        2.5753599253    -2.5001611744     0.1742108703 
| 21>  H        4.3092019075    -0.4289773721    -0.5601119531 
| 22>  H        2.6735689982    -0.9813034246     2.0891884910 
| 23>  H        2.6416779346     0.4257818726     1.0052939825 
| 24> *
| 25> 
| 26>                          ****END OF INPUT****
================================================================================

                       ****************************
                       * Single Point Calculation *
                       ****************************

---------------------------------
CARTESIAN COORDINATES (ANGSTROEM)
---------------------------------
  C     -0.177645    1.492072    0.051677
  C      0.035711   -0.037823   -0.018337
  C      0.763640   -0.453175   -1.272063
  C      1.940598   -1.077775   -1.291805
  C      2.724988   -1.436947   -0.055830
  O      4.127471   -1.329847   -0.268674
  C      2.265545   -0.596868    1.153107
  C      0.750741   -0.519615    1.246161
  O      0.140548   -0.799082    2.250782
  H      0.777630    2.025409    0.087559
  H     -0.720894    1.841017   -0.831921
  H     -0.758010    1.754313    0.940319
  H     -0.957550   -0.504664   -0.002874
  H      0.254626   -0.234936   -2.209034
  H      2.395847   -1.376181   -2.232913
  H      2.575360   -2.500161    0.174211
  H      4.309202   -0.428977   -0.560112
  H      2.673569   -0.981303    2.089188
  H      2.641678    0.425782    1.005294

----------------------------
CARTESIAN COORDINATES (A.U.)
----------------------------
  NO LB      ZA    FRAG    MASS        X           Y           Z
   0 C     6.0000    0    12.011         -0.335700523215448          2.819606840576773          0.097655053712562
   1 C     6.0000    0    12.011          0.067483598953028         -0.071475289386533         -0.034651149959589
   2 C     6.0000    0    12.011          1.443071375377676         -0.856376445720026         -2.403851068315181
   3 C     6.0000    0    12.011          3.667198773042848         -2.036698954330229         -2.441157662760964
   4 C     6.0000    0    12.011          5.149481189966813         -2.715435555730453         -0.105504238701733
   5 O     8.0000    0    15.999          7.799790414556295         -2.513046663086982         -0.507719744890608
   6 C     6.0000    0    12.011          4.281259336127005         -1.127917587980517          2.179056559908156
   7 C     6.0000    0    12.011          1.418695699899439         -0.981930477446831          2.354902377982858
   8 O     8.0000    0    15.999          0.265596402671071         -1.510046072405647          4.253361836634489
   9 H     1.0000    0     1.008          1.469507703852483          3.827467848826474          0.165463236750667
  10 H     1.0000    0     1.008         -1.362291761234192          3.479017985514400         -1.572101964996893
  11 H     1.0000    0     1.008         -1.432431436975779          3.315171794975433          1.776945566156954
  12 H     1.0000    0     1.008         -1.809507758990912         -0.953677157452134         -0.005430709703527
  13 H     1.0000    0     1.008          0.481173292436374         -0.443964965639281         -4.174470202517979
  14 H     1.0000    0     1.008          4.527494582196275         -2.600605515534256         -4.219593955063389
  15 H     1.0000    0     1.008          4.866724955092892         -4.724619910278928          0.329210834419076
  16 H     1.0000    0     1.008          8.143211460946059         -0.810649750918231         -1.058458195694744
  17 H     1.0000    0     1.008          5.052313206740200         -1.854394726773043          3.947994090130203
  18 H     1.0000    0     1.008          4.992047830416736          0.804611132002149          1.899730311004024

--------------------------------
INTERNAL COORDINATES (ANGSTROEM)
--------------------------------
 C      0   0   0   0.000000     0.000     0.000
 C      1   0   0   1.546286     0.000     0.000
 C      2   1   0   1.508055   112.132     0.000
 C      3   2   1   1.332570   124.593   119.232
 C      4   3   2   1.507284   123.999   358.871
 O      5   4   3   1.422579   111.865   215.109
 C      5   4   3   1.542190   110.975   340.615
 C      7   5   4   1.519624   111.880    44.872
 O      8   7   5   1.208181   122.861   127.460
 H      1   2   3   1.094663   111.292   297.355
 H      1   2   3   1.094361   110.329    56.873
 H      1   2   3   1.093288   110.327   176.670
 H      2   1   3   1.097610   107.177   239.990
 H      3   2   1   1.088411   115.767   297.695
 H      4   3   2   1.087190   120.752   178.105
 H      5   4   3   1.098059   109.366   100.681
 H      6   5   4   0.964121   107.542    56.789
 H      7   5   4   1.091111   111.666   168.351
 H      7   5   4   1.099608   107.417   287.034

---------------------------
INTERNAL COORDINATES (A.U.)
---------------------------
 C      0   0   0   0.000000     0.000     0.000
 C      1   0   0   2.922057     0.000     0.000
 C      2   1   0   2.849810   112.132     0.000
 C      3   2   1   2.518193   124.593   119.232
 C      4   3   2   2.848354   123.999   358.871
 O      5   4   3   2.688285   111.865   215.109
 C      5   4   3   2.914316   110.975   340.615
 C      7   5   4   2.871673   111.880    44.872
 O      8   7   5   2.283132   122.861   127.460
 H      1   2   3   2.068613   111.292   297.355
 H      1   2   3   2.068043   110.329    56.873
 H      1   2   3   2.066015   110.327   176.670
 H      2   1   3   2.074182   107.177   239.990
 H      3   2   1   2.056799   115.767   297.695
 H      4   3   2   2.054491   120.752   178.105
 H      5   4   3   2.075030   109.366   100.681
 H      6   5   4   1.821924   107.542    56.789
 H      7   5   4   2.061900   111.666   168.351
 H      7   5   4   2.077958   107.417   287.034

---------------------
BASIS SET INFORMATION
---------------------
There are 3 groups of distinct atoms

 Group   1 Type C   : 11s6p2d1f contracted to 5s3p2d1f pattern {62111/411/11/1}
 Group   2 Type O   : 11s6p2d1f contracted to 5s3p2d1f pattern {62111/411/11/1}
 Group   3 Type H   : 5s1p contracted to 3s1p pattern {311/1}

Atom   0C    basis set group =>   1
Atom   1C    basis set group =>   1
Atom   2C    basis set group =>   1
Atom   3C    basis set group =>   1
Atom   4C    basis set group =>   1
Atom   5O    basis set group =>   2
Atom   6C    basis set group =>   1
Atom   7C    basis set group =>   1
Atom   8O    basis set group =>   2
Atom   9H    basis set group =>   3
Atom  10H    basis set group =>   3
Atom  11H    basis set group =>   3
Atom  12H    basis set group =>   3
Atom  13H    basis set group =>   3
Atom  14H    basis set group =>   3
Atom  15H    basis set group =>   3
Atom  16H    basis set group =>   3
Atom  17H    basis set group =>   3
Atom  18H    basis set group =>   3
-------------------------------
AUXILIARY BASIS SET INFORMATION
-------------------------------
There are 3 groups of distinct atoms

 Group   1 Type C   : 14s10p6d2f1g contracted to 10s8p5d1f1g pattern {5111111111/31111111/21111/2/1}
 Group   2 Type O   : 14s10p6d2f1g contracted to 10s8p4d2f1g pattern {5111111111/31111111/3111/11/1}
 Group   3 Type H   : 4s2p2d contracted to 2s2p2d pattern {31/11/11}

Atom   0C    basis set group =>   1
Atom   1C    basis set group =>   1
Atom   2C    basis set group =>   1
Atom   3C    basis set group =>   1
Atom   4C    basis set group =>   1
Atom   5O    basis set group =>   2
Atom   6C    basis set group =>   1
Atom   7C    basis set group =>   1
Atom   8O    basis set group =>   2
Atom   9H    basis set group =>   3
Atom  10H    basis set group =>   3
Atom  11H    basis set group =>   3
Atom  12H    basis set group =>   3
Atom  13H    basis set group =>   3
Atom  14H    basis set group =>   3
Atom  15H    basis set group =>   3
Atom  16H    basis set group =>   3
Atom  17H    basis set group =>   3
Atom  18H    basis set group =>   3
------------------------------------------------------------------------------
                           ORCA GTO INTEGRAL CALCULATION
                           -- RI-GTO INTEGRALS CHOSEN --
------------------------------------------------------------------------------

                         BASIS SET STATISTICS AND STARTUP INFO

Gaussian basis set:
 # of primitive gaussian shells          ...  240
 # of primitive gaussian functions       ...  494
 # of contracted shells                  ...  139
 # of contracted basis functions         ...  339
 Highest angular momentum                ...    3
 Maximum contraction depth               ...    6
Auxiliary gaussian basis set:
 # of primitive gaussian shells          ...  377
 # of primitive gaussian functions       ... 1073
 # of contracted shells                  ...  285
 # of contracted aux-basis functions     ...  859
 Highest angular momentum                ...    4
 Maximum contraction depth               ...    5
Ratio of auxiliary to basis functions    ...  2.53
Integral package used                  ... LIBINT
 One Electron integrals                  ... done
 Ordering auxiliary basis shells         ... done
 Integral threshhold             Thresh  ...  2.500e-11
 Primitive cut-off               TCut    ...  2.500e-12
 Pre-screening matrix                    ... done
 Shell pair data                         ... 
 Ordering of the shell pairs             ... done (   0.002 sec) 8927 of 9730 pairs
 Determination of significant pairs      ... done (   0.000 sec)
 Creation of shell pair data             ... done (   0.002 sec)
 Storage of shell pair data              ... done (   0.002 sec)
 Shell pair data done in (   0.005 sec)
 Computing two index integrals           ... done
 Cholesky decomposition of the V-matrix  ... done


Timings:
 Total evaluation time                   ...   0.397 sec (  0.007 min)
 One electron matrix time                ...   0.093 sec (  0.002 min) = 23.4%
 Schwartz matrix evaluation time         ...   0.214 sec (  0.004 min) = 53.8%
 Two index repulsion integral time       ...   0.023 sec (  0.000 min) =  5.8%
 Cholesky decomposition of V             ...   0.034 sec (  0.001 min) =  8.6%
 Three index repulsion integral time     ...   0.000 sec (  0.000 min) =  0.0%

-------------------------------------------------------------------------------
                                 ORCA SCF
-------------------------------------------------------------------------------

------------
SCF SETTINGS
------------
Hamiltonian:
 Ab initio Hamiltonian  Method          .... Hartree-Fock(GTOs)
 RI-approximation to the Coulomb term is turned on
   Number of auxiliary basis functions  .... 859
   RI-JK (J+K treated both via RI)      .... on


General Settings:
 Integral files         IntName         .... dsgdb9nsd_085069
 Hartree-Fock type      HFTyp           .... RHF
 Total Charge           Charge          ....    0
 Multiplicity           Mult            ....    1
 Number of Electrons    NEL             ....   68
 Basis Dimension        Dim             ....  339
 Nuclear Repulsion      ENuc            ....    451.9169988652 Eh

Convergence Acceleration:
 DIIS                   CNVDIIS         .... on
   Start iteration      DIISMaxIt       ....    12
   Startup error        DIISStart       ....  0.200000
   # of expansion vecs  DIISMaxEq       ....     5
   Bias factor          DIISBfac        ....   1.050
   Max. coefficient     DIISMaxC        ....  10.000
 Newton-Raphson         CNVNR           .... off
 SOSCF                  CNVSOSCF        .... on
   Start iteration      SOSCFMaxIt      ....   150
   Startup grad/error   SOSCFStart      ....  0.003300
 Level Shifting         CNVShift        .... on
   Level shift para.    LevelShift      ....    0.2500
   Turn off err/grad.   ShiftErr        ....    0.0010
 Zerner damping         CNVZerner       .... off
 Static damping         CNVDamp         .... on
   Fraction old density DampFac         ....    0.7000
   Max. Damping (<1)    DampMax         ....    0.9800
   Min. Damping (>=0)   DampMin         ....    0.0000
   Turn off err/grad.   DampErr         ....    0.1000
 Fernandez-Rico         CNVRico         .... off

SCF Procedure:
 Maximum # iterations   MaxIter         ....   125
 SCF integral mode      SCFMode         .... Direct
   Integral package                     .... LIBINT
 Reset frequeny         DirectResetFreq ....    20
 Integral Threshold     Thresh          ....  2.500e-11 Eh
 Primitive CutOff       TCut            ....  2.500e-12 Eh

Convergence Tolerance:
 Convergence Check Mode ConvCheckMode   .... Total+1el-Energy
 Energy Change          TolE            ....  1.000e-08 Eh
 1-El. energy change                    ....  1.000e-05 Eh
 Orbital Gradient       TolG            ....  1.000e-05
 Orbital Rotation angle TolX            ....  1.000e-05
 DIIS Error             TolErr          ....  5.000e-07


Diagonalization of the overlap matrix:
Smallest eigenvalue                        ... 5.601e-05
Time for diagonalization                   ...    0.032 sec
Threshold for overlap eigenvalues          ... 1.000e-08
Number of eigenvalues below threshold      ... 0
Time for construction of square roots      ...    0.017 sec
Total time needed                          ...    0.050 sec

-------------------
DFT GRID GENERATION
-------------------

General Integration Accuracy     IntAcc      ...  4.340
Radial Grid Type                 RadialGrid  ... Gauss-Chebyshev
Angular Grid (max. acc.)         AngularGrid ... Lebedev-110
Angular grid pruning method      GridPruning ... 3 (G Style)
Weight generation scheme         WeightScheme... Becke
Basis function cutoff            BFCut       ...    1.0000e-11
Integration weight cutoff        WCut        ...    1.0000e-14
Grids for H and He will be reduced by one unit

# of grid points (after initial pruning)     ...  22964 (   0.0 sec)
# of grid points (after weights+screening)   ...  21020 (   0.1 sec)
nearest neighbour list constructed           ...    0.0 sec
Grid point re-assignment to atoms done       ...    0.0 sec
Grid point division into batches done        ...    0.0 sec
Reduced shell lists constructed in    1.3 sec

Total number of grid points                  ...    21020
Total number of batches                      ...      338
Average number of points per batch           ...       62
Average number of grid points per atom       ...     1106
Average number of shells per batch           ...    93.90 (67.55%)
Average number of basis functions per batch  ...   234.55 (69.19%)
Average number of large shells per batch     ...    73.22 (77.98%)
Average number of large basis fcns per batch ...   180.14 (76.80%)
Average number of aux-shells per batch       ...    93.90 (32.95%)
Average number of aux functions per batch    ...   234.55 (  inf%)
Maximum spatial batch extension              ...  18.51, 23.21, 20.74 au
Average spatial batch extension              ...   3.48,  3.59,  3.54 au

Time for grid setup =    1.411 sec

------------------------------
INITIAL GUESS: MODEL POTENTIAL
------------------------------
Loading Hartree-Fock densities                     ... done
Calculating cut-offs                               ... done
Setting up the integral package                    ... done
Initializing the effective Hamiltonian             ... done
Starting the Coulomb interaction                   ... done (   0.7 sec)
Reading the grid                                   ... done
Mapping shells                                     ... done
Starting the XC term evaluation                    ... done (   0.7 sec)
Transforming the Hamiltonian                       ... done (   0.0 sec)
Diagonalizing the Hamiltonian                      ... done (   0.1 sec)
Back transforming the eigenvectors                 ... done (   0.0 sec)
Now organizing SCF variables                       ... done
                      ------------------
                      INITIAL GUESS DONE (   3.1 sec)
                      ------------------
--------------
SCF ITERATIONS
--------------
ITER       Energy         Delta-E        Max-DP      RMS-DP      [F,P]     Damp
  0   -420.3557210060   0.000000000000 0.05469403  0.00089365  0.2887481 0.7000
  1   -420.1809690078   0.174751998187 0.08503560  0.00101975  0.2674823 0.7000
                               ***Turning on DIIS***
  2   -420.2252596229  -0.044290615104 0.05974722  0.00073638  0.1861541 0.7000
  3   -421.3769306562  -1.151671033228 0.01269423  0.00034013  0.1328724 0.7000
  4   -420.7076156618   0.669314994369 0.05685515  0.00090575  0.0862368 0.0000
  5   -420.7428185970  -0.035202935198 0.01439177  0.00024564  0.0278275 0.0000
  6   -420.6697682595   0.073050337439 0.01172552  0.00012176  0.0173317 0.0000
  7   -420.6894675006  -0.019699241094 0.00297891  0.00005999  0.0092225 0.0000
  8   -420.6845903931   0.004877107506 0.00309057  0.00005149  0.0070280 0.0000
                      *** Initiating the SOSCF procedure ***
                           *** Shutting down DIIS ***
                      *** Re-Reading the Fockian *** 
                      *** Removing any level shift *** 
ITER      Energy       Delta-E        Grad      Rot      Max-DP    RMS-DP
  9   -420.76081319  -0.0762227923  0.000546  0.000546  0.001148  0.000014
 10   -420.76520190  -0.0043887153  0.000341  0.000551  0.000758  0.000009
 11   -420.76520380  -0.0000018999  0.000106  0.000535  0.001535  0.000014
 12   -420.76520461  -0.0000008105  0.000026  0.000024  0.000162  0.000003
 13   -420.76520468  -0.0000000692  0.000011  0.000020  0.000043  0.000001
 14   -420.76520469  -0.0000000061  0.000003  0.000007  0.000024  0.000000
                  ***Gradient check signals convergence***
              ***Rediagonalizing the Fockian in SOSCF/NRSCF***

               *****************************************************
               *                     SUCCESS                       *
               *           SCF CONVERGED AFTER  15 CYCLES          *
               *****************************************************


----------------
TOTAL SCF ENERGY
----------------

Total Energy       :         -420.76520469 Eh          -11449.60331 eV

Components:
Nuclear Repulsion  :          451.91699887 Eh           12297.28672 eV
Electronic Energy  :         -872.68220355 Eh          -23746.89003 eV

One Electron Energy:        -1469.17502192 Eh          -39978.28480 eV
Two Electron Energy:          596.49281836 Eh           16231.39478 eV

Virial components:
Potential Energy   :         -841.00436425 Eh          -22884.89220 eV
Kinetic Energy     :          420.23915956 Eh           11435.28889 eV
Virial Ratio       :            2.00125178


---------------
SCF CONVERGENCE
---------------

  Last Energy change         ...   -9.6145e-10  Tolerance :   1.0000e-08
  Last MAX-Density change    ...    7.4454e-06  Tolerance :   1.0000e-07
  Last RMS-Density change    ...    9.3062e-08  Tolerance :   5.0000e-09
  Last Orbital Gradient      ...    1.8046e-06  Tolerance :   1.0000e-05
  Last Orbital Rotation      ...    4.3092e-06  Tolerance :   1.0000e-05

             **** THE GBW FILE WAS UPDATED (dsgdb9nsd_085069.gbw) ****
             **** DENSITY FILE WAS UPDATED (dsgdb9nsd_085069.scfp.tmp) ****
             **** ENERGY FILE WAS UPDATED (dsgdb9nsd_085069.en.tmp) ****
----------------
ORBITAL ENERGIES
----------------

  NO   OCC          E(Eh)            E(eV) 
   0   2.0000     -20.569173      -559.7157 
   1   2.0000     -20.550009      -559.1942 
   2   2.0000     -11.333435      -308.3984 
   3   2.0000     -11.302786      -307.5644 
   4   2.0000     -11.254516      -306.2510 
   5   2.0000     -11.251146      -306.1592 
   6   2.0000     -11.242421      -305.9218 
   7   2.0000     -11.242284      -305.9181 
   8   2.0000     -11.238123      -305.8049 
   9   2.0000      -1.393784       -37.9268 
  10   2.0000      -1.375842       -37.4386 
  11   2.0000      -1.135101       -30.8877 
  12   2.0000      -1.047089       -28.4927 
  13   2.0000      -1.014309       -27.6008 
  14   2.0000      -0.919723       -25.0269 
  15   2.0000      -0.859069       -23.3764 
  16   2.0000      -0.801502       -21.8100 
  17   2.0000      -0.724181       -19.7060 
  18   2.0000      -0.693042       -18.8586 
  19   2.0000      -0.668575       -18.1928 
  20   2.0000      -0.654844       -17.8192 
  21   2.0000      -0.644433       -17.5359 
  22   2.0000      -0.606775       -16.5112 
  23   2.0000      -0.590479       -16.0677 
  24   2.0000      -0.576810       -15.6958 
  25   2.0000      -0.570739       -15.5306 
  26   2.0000      -0.559357       -15.2209 
  27   2.0000      -0.533646       -14.5213 
  28   2.0000      -0.514425       -13.9982 
  29   2.0000      -0.505195       -13.7470 
  30   2.0000      -0.486502       -13.2384 
  31   2.0000      -0.454219       -12.3599 
  32   2.0000      -0.406899       -11.0723 
  33   2.0000      -0.374208       -10.1827 
  34   0.0000       0.119588         3.2542 
  35   0.0000       0.128405         3.4941 
  36   0.0000       0.132850         3.6150 
  37   0.0000       0.155207         4.2234 
  38   0.0000       0.168590         4.5876 
  39   0.0000       0.176112         4.7923 
  40   0.0000       0.187032         5.0894 
  41   0.0000       0.198204         5.3934 
  42   0.0000       0.210532         5.7289 
  43   0.0000       0.218779         5.9533 
  44   0.0000       0.232718         6.3326 
  45   0.0000       0.241720         6.5775 
  46   0.0000       0.262559         7.1446 
  47   0.0000       0.274080         7.4581 
  48   0.0000       0.295883         8.0514 
  49   0.0000       0.306373         8.3368 
  50   0.0000       0.316701         8.6179 
  51   0.0000       0.322934         8.7875 
  52   0.0000       0.332878         9.0581 
  53   0.0000       0.353128         9.6091 
  54   0.0000       0.361931         9.8486 
  55   0.0000       0.380179        10.3452 
  56   0.0000       0.389850        10.6084 
  57   0.0000       0.404134        10.9970 
  58   0.0000       0.417436        11.3590 
  59   0.0000       0.439232        11.9521 
  60   0.0000       0.461349        12.5540 
  61   0.0000       0.462829        12.5942 
  62   0.0000       0.470650        12.8071 
  63   0.0000       0.488671        13.2974 
  64   0.0000       0.502627        13.6772 
  65   0.0000       0.514515        14.0007 
  66   0.0000       0.520829        14.1725 
  67   0.0000       0.539674        14.6853 
  68   0.0000       0.540088        14.6965 
  69   0.0000       0.551627        15.0105 
  70   0.0000       0.557143        15.1606 
  71   0.0000       0.561743        15.2858 
  72   0.0000       0.570373        15.5206 
  73   0.0000       0.572838        15.5877 
  74   0.0000       0.581830        15.8324 
  75   0.0000       0.595119        16.1940 
  76   0.0000       0.598623        16.2894 
  77   0.0000       0.603507        16.4223 
  78   0.0000       0.612317        16.6620 
  79   0.0000       0.621623        16.9152 
  80   0.0000       0.630582        17.1590 
  81   0.0000       0.634976        17.2786 
  82   0.0000       0.642174        17.4744 
  83   0.0000       0.667681        18.1685 
  84   0.0000       0.702441        19.1144 
  85   0.0000       0.713360        19.4115 
  86   0.0000       0.725130        19.7318 
  87   0.0000       0.755553        20.5596 
  88   0.0000       0.766932        20.8693 
  89   0.0000       0.781767        21.2729 
  90   0.0000       0.791314        21.5327 
  91   0.0000       0.798751        21.7351 
  92   0.0000       0.817416        22.2430 
  93   0.0000       0.843003        22.9393 
  94   0.0000       0.850352        23.1392 
  95   0.0000       0.857551        23.3352 
  96   0.0000       0.876207        23.8428 
  97   0.0000       0.899092        24.4655 
  98   0.0000       0.921807        25.0837 
  99   0.0000       0.927050        25.2263 
 100   0.0000       0.945822        25.7371 
 101   0.0000       1.003291        27.3009 
 102   0.0000       1.023828        27.8598 
 103   0.0000       1.038431        28.2571 
 104   0.0000       1.046058        28.4647 
 105   0.0000       1.065649        28.9978 
 106   0.0000       1.078661        29.3519 
 107   0.0000       1.098622        29.8950 
 108   0.0000       1.111604        30.2483 
 109   0.0000       1.131886        30.8002 
 110   0.0000       1.156874        31.4801 
 111   0.0000       1.180643        32.1269 
 112   0.0000       1.204742        32.7827 
 113   0.0000       1.213002        33.0075 
 114   0.0000       1.224402        33.3177 
 115   0.0000       1.256889        34.2017 
 116   0.0000       1.268622        34.5209 
 117   0.0000       1.288399        35.0591 
 118   0.0000       1.299522        35.3618 
 119   0.0000       1.315797        35.8047 
 120   0.0000       1.339289        36.4439 
 121   0.0000       1.367344        37.2073 
 122   0.0000       1.375661        37.4336 
 123   0.0000       1.398334        38.0506 
 124   0.0000       1.411334        38.4043 
 125   0.0000       1.443151        39.2701 
 126   0.0000       1.471078        40.0301 
 127   0.0000       1.485887        40.4330 
 128   0.0000       1.498357        40.7724 
 129   0.0000       1.516946        41.2782 
 130   0.0000       1.555859        42.3371 
 131   0.0000       1.596736        43.4494 
 132   0.0000       1.600503        43.5519 
 133   0.0000       1.619678        44.0737 
 134   0.0000       1.652979        44.9798 
 135   0.0000       1.679874        45.7117 
 136   0.0000       1.691406        46.0255 
 137   0.0000       1.737764        47.2870 
 138   0.0000       1.743119        47.4327 
 139   0.0000       1.779632        48.4263 
 140   0.0000       1.789230        48.6874 
 141   0.0000       1.793110        48.7930 
 142   0.0000       1.815455        49.4010 
 143   0.0000       1.828419        49.7538 
 144   0.0000       1.841639        50.1135 
 145   0.0000       1.860123        50.6165 
 146   0.0000       1.865590        50.7653 
 147   0.0000       1.888926        51.4003 
 148   0.0000       1.903824        51.8057 
 149   0.0000       1.932809        52.5944 
 150   0.0000       1.944996        52.9260 
 151   0.0000       1.962443        53.4008 
 152   0.0000       1.990812        54.1728 
 153   0.0000       2.000721        54.4424 
 154   0.0000       2.026260        55.1373 
 155   0.0000       2.032485        55.3067 
 156   0.0000       2.073269        56.4165 
 157   0.0000       2.094194        56.9859 
 158   0.0000       2.096292        57.0430 
 159   0.0000       2.120933        57.7135 
 160   0.0000       2.137613        58.1674 
 161   0.0000       2.155902        58.6651 
 162   0.0000       2.180820        59.3431 
 163   0.0000       2.213505        60.2325 
 164   0.0000       2.241008        60.9809 
 165   0.0000       2.261033        61.5258 
 166   0.0000       2.268976        61.7420 
 167   0.0000       2.280495        62.0554 
 168   0.0000       2.308578        62.8196 
 169   0.0000       2.342566        63.7445 
 170   0.0000       2.380191        64.7683 
 171   0.0000       2.408783        65.5463 
 172   0.0000       2.411172        65.6113 
 173   0.0000       2.424930        65.9857 
 174   0.0000       2.449541        66.6554 
 175   0.0000       2.472924        67.2917 
 176   0.0000       2.496656        67.9375 
 177   0.0000       2.512217        68.3609 
 178   0.0000       2.541183        69.1491 
 179   0.0000       2.551128        69.4197 
 180   0.0000       2.572052        69.9891 
 181   0.0000       2.577810        70.1458 
 182   0.0000       2.586137        70.3724 
 183   0.0000       2.591180        70.5096 
 184   0.0000       2.618470        71.2522 
 185   0.0000       2.645998        72.0013 
 186   0.0000       2.649940        72.1085 
 187   0.0000       2.670244        72.6610 
 188   0.0000       2.682627        72.9980 
 189   0.0000       2.703640        73.5698 
 190   0.0000       2.760955        75.1294 
 191   0.0000       2.775758        75.5322 
 192   0.0000       2.776916        75.5637 
 193   0.0000       2.801900        76.2436 
 194   0.0000       2.838258        77.2329 
 195   0.0000       2.851054        77.5811 
 196   0.0000       2.868174        78.0470 
 197   0.0000       2.872352        78.1607 
 198   0.0000       2.882156        78.4275 
 199   0.0000       2.903137        78.9984 
 200   0.0000       2.919346        79.4394 
 201   0.0000       2.936721        79.9122 
 202   0.0000       2.969819        80.8129 
 203   0.0000       2.983433        81.1833 
 204   0.0000       2.991348        81.3987 
 205   0.0000       3.005469        81.7830 
 206   0.0000       3.016025        82.0702 
 207   0.0000       3.022714        82.2522 
 208   0.0000       3.049963        82.9937 
 209   0.0000       3.055623        83.1477 
 210   0.0000       3.088478        84.0418 
 211   0.0000       3.117329        84.8268 
 212   0.0000       3.125356        85.0453 
 213   0.0000       3.158488        85.9468 
 214   0.0000       3.173796        86.3634 
 215   0.0000       3.198627        87.0391 
 216   0.0000       3.233901        87.9989 
 217   0.0000       3.245210        88.3067 
 218   0.0000       3.257026        88.6282 
 219   0.0000       3.316642        90.2504 
 220   0.0000       3.320597        90.3580 
 221   0.0000       3.339018        90.8593 
 222   0.0000       3.359783        91.4243 
 223   0.0000       3.380006        91.9746 
 224   0.0000       3.399151        92.4956 
 225   0.0000       3.423282        93.1522 
 226   0.0000       3.427260        93.2605 
 227   0.0000       3.438768        93.5736 
 228   0.0000       3.445634        93.7605 
 229   0.0000       3.458249        94.1037 
 230   0.0000       3.480353        94.7052 
 231   0.0000       3.491772        95.0159 
 232   0.0000       3.515973        95.6745 
 233   0.0000       3.520081        95.7863 
 234   0.0000       3.537949        96.2725 
 235   0.0000       3.547092        96.5213 
 236   0.0000       3.557818        96.8131 
 237   0.0000       3.584205        97.5312 
 238   0.0000       3.602232        98.0217 
 239   0.0000       3.612800        98.3093 
 240   0.0000       3.636418        98.9520 
 241   0.0000       3.651335        99.3579 
 242   0.0000       3.672877        99.9441 
 243   0.0000       3.685175       100.2787 
 244   0.0000       3.700475       100.6950 
 245   0.0000       3.709474       100.9399 
 246   0.0000       3.717441       101.1567 
 247   0.0000       3.724029       101.3360 
 248   0.0000       3.732254       101.5598 
 249   0.0000       3.754370       102.1616 
 250   0.0000       3.792862       103.2090 
 251   0.0000       3.802215       103.4635 
 252   0.0000       3.822111       104.0049 
 253   0.0000       3.833236       104.3077 
 254   0.0000       3.856709       104.9464 
 255   0.0000       3.901029       106.1524 
 256   0.0000       3.914692       106.5242 
 257   0.0000       3.940164       107.2173 
 258   0.0000       3.947665       107.4214 
 259   0.0000       3.966287       107.9282 
 260   0.0000       3.981408       108.3396 
 261   0.0000       3.996637       108.7540 
 262   0.0000       4.015594       109.2699 
 263   0.0000       4.048023       110.1523 
 264   0.0000       4.071233       110.7839 
 265   0.0000       4.129890       112.3800 
 266   0.0000       4.151850       112.9776 
 267   0.0000       4.154406       113.0471 
 268   0.0000       4.226687       115.0140 
 269   0.0000       4.236616       115.2842 
 270   0.0000       4.290815       116.7590 
 271   0.0000       4.297530       116.9417 
 272   0.0000       4.312749       117.3559 
 273   0.0000       4.355599       118.5219 
 274   0.0000       4.365946       118.8034 
 275   0.0000       4.377680       119.1227 
 276   0.0000       4.421886       120.3256 
 277   0.0000       4.441024       120.8464 
 278   0.0000       4.454411       121.2107 
 279   0.0000       4.466336       121.5352 
 280   0.0000       4.492700       122.2526 
 281   0.0000       4.544204       123.6541 
 282   0.0000       4.565470       124.2327 
 283   0.0000       4.589556       124.8882 
 284   0.0000       4.609739       125.4374 
 285   0.0000       4.671211       127.1101 
 286   0.0000       4.729913       128.7075 
 287   0.0000       4.748458       129.2121 
 288   0.0000       4.803690       130.7151 
 289   0.0000       4.830260       131.4381 
 290   0.0000       4.887091       132.9845 
 291   0.0000       4.907742       133.5465 
 292   0.0000       4.937695       134.3615 
 293   0.0000       4.979887       135.5096 
 294   0.0000       5.027618       136.8084 
 295   0.0000       5.067474       137.8930 
 296   0.0000       5.090359       138.5157 
 297   0.0000       5.149258       140.1184 
 298   0.0000       5.170044       140.6841 
 299   0.0000       5.211396       141.8093 
 300   0.0000       5.233820       142.4195 
 301   0.0000       5.316928       144.6810 
 302   0.0000       5.330442       145.0487 
 303   0.0000       5.371730       146.1722 
 304   0.0000       5.456324       148.4741 
 305   0.0000       5.644734       153.6010 
 306   0.0000       5.651433       153.7833 
 307   0.0000       5.686022       154.7245 
 308   0.0000       5.744798       156.3239 
 309   0.0000       5.819055       158.3445 
 310   0.0000       5.958038       162.1265 
 311   0.0000       6.061865       164.9517 
 312   0.0000       6.169926       167.8922 
 313   0.0000       6.222647       169.3268 
 314   0.0000       6.273597       170.7133 
 315   0.0000       6.405573       174.3045 
 316   0.0000       6.640705       180.7028 
 317   0.0000       6.816620       185.4897 
 318   0.0000       6.861759       186.7180 
 319   0.0000       6.922415       188.3685 
 320   0.0000       6.984729       190.0641 
 321   0.0000       7.050310       191.8487 
 322   0.0000       7.094096       193.0402 
 323   0.0000       7.232096       196.7953 
 324   0.0000       7.332436       199.5257 
 325   0.0000       7.357872       200.2179 
 326   0.0000       7.507239       204.2824 
 327   0.0000       7.537934       205.1176 
 328   0.0000       7.620886       207.3748 
 329   0.0000       7.670795       208.7329 
 330   0.0000      23.304927       634.1593 
 331   0.0000      23.460108       638.3820 
 332   0.0000      23.573992       641.4809 
 333   0.0000      23.659267       643.8014 
 334   0.0000      23.761089       646.5721 
 335   0.0000      23.975998       652.4201 
 336   0.0000      24.182608       658.0422 
 337   0.0000      45.496730      1238.0290 
 338   0.0000      45.536787      1239.1190 

                    ********************************
                    * MULLIKEN POPULATION ANALYSIS *
                    ********************************

-----------------------
MULLIKEN ATOMIC CHARGES
-----------------------
   0 C :   -0.386459
   1 C :    0.146657
   2 C :   -0.216359
   3 C :   -0.298959
   4 C :    0.274929
   5 O :   -0.533183
   6 C :   -0.197367
   7 C :    0.268061
   8 O :   -0.425967
   9 H :    0.103997
  10 H :    0.115484
  11 H :    0.136693
  12 H :    0.100507
  13 H :    0.128664
  14 H :    0.136034
  15 H :    0.098061
  16 H :    0.320684
  17 H :    0.131468
  18 H :    0.097055
Sum of atomic charges:   -0.0000000

--------------------------------
MULLIKEN REDUCED ORBITAL CHARGES
--------------------------------
  0 C s       :     3.260000  s :     3.260000
      pz      :     1.073093  p :     3.048628
      px      :     1.056389
      py      :     0.919146
      dz2     :     0.013842  d :     0.073340
      dxz     :     0.013115
      dyz     :     0.012964
      dx2y2   :     0.012641
      dxy     :     0.020778
      f0      :     0.000269  f :     0.004492
      f+1     :     0.001265
      f-1     :     0.000536
      f+2     :     0.000425
      f-2     :     0.000121
      f+3     :     0.000704
      f-3     :     0.001173
  1 C s       :     2.920880  s :     2.920880
      pz      :     0.879160  p :     2.784782
      px      :     0.974509
      py      :     0.931113
      dz2     :     0.029090  d :     0.139596
      dxz     :     0.031377
      dyz     :     0.028407
      dx2y2   :     0.023739
      dxy     :     0.026983
      f0      :     0.001289  f :     0.008085
      f+1     :     0.001773
      f-1     :     0.001041
      f+2     :     0.001093
      f-2     :     0.000811
      f+3     :     0.000826
      f-3     :     0.001252
  2 C s       :     3.176806  s :     3.176806
      pz      :     0.984863  p :     2.921299
      px      :     0.970435
      py      :     0.966002
      dz2     :     0.024289  d :     0.110053
      dxz     :     0.032270
      dyz     :     0.013190
      dx2y2   :     0.022829
      dxy     :     0.017475
      f0      :     0.001302  f :     0.008201
      f+1     :     0.001443
      f-1     :     0.000579
      f+2     :     0.000806
      f-2     :     0.001185
      f+3     :     0.002039
      f-3     :     0.000847
  3 C s       :     3.212453  s :     3.212453
      pz      :     0.988283  p :     2.978453
      px      :     1.012465
      py      :     0.977706
      dz2     :     0.020733  d :     0.099889
      dxz     :     0.032252
      dyz     :     0.012957
      dx2y2   :     0.020288
      dxy     :     0.013659
      f0      :     0.001146  f :     0.008164
      f+1     :     0.001470
      f-1     :     0.000585
      f+2     :     0.000883
      f-2     :     0.001182
      f+3     :     0.002019
      f-3     :     0.000880
  4 C s       :     3.006330  s :     3.006330
      pz      :     0.874563  p :     2.525469
      px      :     0.647734
      py      :     1.003172
      dz2     :     0.029100  d :     0.180063
      dxz     :     0.053240
      dyz     :     0.024009
      dx2y2   :     0.044564
      dxy     :     0.029150
      f0      :     0.002142  f :     0.013210
      f+1     :     0.002140
      f-1     :     0.001227
      f+2     :     0.002764
      f-2     :     0.001100
      f+3     :     0.001520
      f-3     :     0.002317
  5 O s       :     3.803872  s :     3.803872
      pz      :     1.857402  p :     4.693883
      px      :     1.381627
      py      :     1.454855
      dz2     :     0.004498  d :     0.033626
      dxz     :     0.003685
      dyz     :     0.003558
      dx2y2   :     0.017889
      dxy     :     0.003995
      f0      :     0.000319  f :     0.001802
      f+1     :     0.000306
      f-1     :     0.000190
      f+2     :     0.000315
      f-2     :     0.000086
      f+3     :     0.000281
      f-3     :     0.000305
  6 C s       :     3.117392  s :     3.117392
      pz      :     1.038236  p :     2.985494
      px      :     0.937540
      py      :     1.009718
      dz2     :     0.024996  d :     0.088466
      dxz     :     0.015903
      dyz     :     0.013204
      dx2y2   :     0.024702
      dxy     :     0.009661
      f0      :     0.000744  f :     0.006015
      f+1     :     0.001098
      f-1     :     0.001205
      f+2     :     0.000857
      f-2     :     0.000468
      f+3     :     0.001120
      f-3     :     0.000524
  7 C s       :     3.129901  s :     3.129901
      pz      :     0.800054  p :     2.362027
      px      :     0.909697
      py      :     0.652277
      dz2     :     0.067068  d :     0.221059
      dxz     :     0.053241
      dyz     :     0.040476
      dx2y2   :     0.033482
      dxy     :     0.026791
      f0      :     0.004947  f :     0.018952
      f+1     :     0.003124
      f-1     :     0.002254
      f+2     :     0.003665
      f-2     :     0.002503
      f+3     :     0.001191
      f-3     :     0.001268
  8 O s       :     3.835953  s :     3.835953
      pz      :     1.464192  p :     4.550803
      px      :     1.720863
      py      :     1.365747
      dz2     :     0.010580  d :     0.037058
      dxz     :     0.010274
      dyz     :     0.009365
      dx2y2   :     0.002655
      dxy     :     0.004184
      f0      :     0.000441  f :     0.002152
      f+1     :     0.000632
      f-1     :     0.000259
      f+2     :     0.000301
      f-2     :     0.000424
      f+3     :     0.000057
      f-3     :     0.000038
  9 H s       :     0.874244  s :     0.874244
      pz      :     0.003623  p :     0.021759
      px      :     0.011493
      py      :     0.006643
 10 H s       :     0.862613  s :     0.862613
      pz      :     0.010506  p :     0.021903
      px      :     0.006385
      py      :     0.005011
 11 H s       :     0.841389  s :     0.841389
      pz      :     0.010957  p :     0.021918
      px      :     0.006696
      py      :     0.004265
 12 H s       :     0.876564  s :     0.876564
      pz      :     0.003281  p :     0.022929
      px      :     0.013751
      py      :     0.005896
 13 H s       :     0.848120  s :     0.848120
      pz      :     0.013005  p :     0.023216
      px      :     0.005875
      py      :     0.004336
 14 H s       :     0.840571  s :     0.840571
      pz      :     0.013052  p :     0.023396
      px      :     0.005443
      py      :     0.004901
 15 H s       :     0.879715  s :     0.879715
      pz      :     0.003965  p :     0.022223
      px      :     0.002578
      py      :     0.015680
 16 H s       :     0.633667  s :     0.633667
      pz      :     0.016100  p :     0.045649
      px      :     0.010501
      py      :     0.019048
 17 H s       :     0.845954  s :     0.845954
      pz      :     0.012651  p :     0.022577
      px      :     0.005036
      py      :     0.004890
 18 H s       :     0.880555  s :     0.880555
      pz      :     0.003712  p :     0.022390
      px      :     0.005287
      py      :     0.013391


                     *******************************
                     * LOEWDIN POPULATION ANALYSIS *
                     *******************************

----------------------
LOEWDIN ATOMIC CHARGES
----------------------
   0 C :   -0.242984
   1 C :   -0.212416
   2 C :   -0.125266
   3 C :   -0.151623
   4 C :   -0.295094
   5 O :   -0.045762
   6 C :   -0.168824
   7 C :   -0.240422
   8 O :    0.080364
   9 H :    0.112842
  10 H :    0.116534
  11 H :    0.121974
  12 H :    0.160928
  13 H :    0.141955
  14 H :    0.142190
  15 H :    0.146001
  16 H :    0.173903
  17 H :    0.142145
  18 H :    0.143554

-------------------------------
LOEWDIN REDUCED ORBITAL CHARGES
-------------------------------
  0 C s       :     2.827321  s :     2.827321
      pz      :     1.061975  p :     3.118973
      px      :     1.057382
      py      :     0.999616
      dz2     :     0.042669  d :     0.272550
      dxz     :     0.045276
      dyz     :     0.057419
      dx2y2   :     0.047517
      dxy     :     0.079670
      f0      :     0.002047  f :     0.024140
      f+1     :     0.003434
      f-1     :     0.003468
      f+2     :     0.003852
      f-2     :     0.001851
      f+3     :     0.004461
      f-3     :     0.005027
  1 C s       :     2.724165  s :     2.724165
      pz      :     0.981421  p :     2.950253
      px      :     0.972029
      py      :     0.996803
      dz2     :     0.120146  d :     0.488814
      dxz     :     0.091244
      dyz     :     0.097395
      dx2y2   :     0.089118
      dxy     :     0.090910
      f0      :     0.008704  f :     0.049183
      f+1     :     0.007501
      f-1     :     0.007335
      f+2     :     0.008067
      f-2     :     0.005794
      f+3     :     0.005374
      f-3     :     0.006407
  2 C s       :     2.772382  s :     2.772382
      pz      :     0.971712  p :     2.914733
      px      :     1.035977
      py      :     0.907045
      dz2     :     0.080762  d :     0.398095
      dxz     :     0.135768
      dyz     :     0.055601
      dx2y2   :     0.066798
      dxy     :     0.059166
      f0      :     0.008652  f :     0.040056
      f+1     :     0.006249
      f-1     :     0.003511
      f+2     :     0.004879
      f-2     :     0.006461
      f+3     :     0.005201
      f-3     :     0.005102
  3 C s       :     2.779770  s :     2.779770
      pz      :     0.976808  p :     2.946297
      px      :     1.040067
      py      :     0.929422
      dz2     :     0.078186  d :     0.385931
      dxz     :     0.128435
      dyz     :     0.060274
      dx2y2   :     0.064842
      dxy     :     0.054195
      f0      :     0.007905  f :     0.039625
      f+1     :     0.006349
      f-1     :     0.003745
      f+2     :     0.004578
      f-2     :     0.006829
      f+3     :     0.005080
      f-3     :     0.005139
  4 C s       :     2.736876  s :     2.736876
      pz      :     1.002884  p :     2.809248
      px      :     0.799623
      py      :     1.006740
      dz2     :     0.131903  d :     0.662051
      dxz     :     0.172874
      dyz     :     0.086862
      dx2y2   :     0.178839
      dxy     :     0.091573
      f0      :     0.014623  f :     0.086919
      f+1     :     0.014045
      f-1     :     0.006427
      f+2     :     0.015907
      f-2     :     0.008032
      f+3     :     0.012362
      f-3     :     0.015524
  5 O s       :     3.366549  s :     3.366549
      pz      :     1.742388  p :     4.607262
      px      :     1.420295
      py      :     1.444579
      dz2     :     0.007410  d :     0.067726
      dxz     :     0.011740
      dyz     :     0.005317
      dx2y2   :     0.028847
      dxy     :     0.014411
      f0      :     0.000538  f :     0.004225
      f+1     :     0.000511
      f-1     :     0.000162
      f+2     :     0.000822
      f-2     :     0.000106
      f+3     :     0.000671
      f-3     :     0.001415
  6 C s       :     2.775535  s :     2.775535
      pz      :     1.007794  p :     3.006052
      px      :     0.992332
      py      :     1.005925
      dz2     :     0.091137  d :     0.352399
      dxz     :     0.072362
      dyz     :     0.049736
      dx2y2   :     0.090290
      dxy     :     0.048874
      f0      :     0.005028  f :     0.034837
      f+1     :     0.006014
      f-1     :     0.004857
      f+2     :     0.005759
      f-2     :     0.003848
      f+3     :     0.005516
      f-3     :     0.003815
  7 C s       :     2.756425  s :     2.756425
      pz      :     0.948964  p :     2.596618
      px      :     1.001489
      py      :     0.646166
      dz2     :     0.227304  d :     0.774125
      dxz     :     0.221982
      dyz     :     0.120412
      dx2y2   :     0.113970
      dxy     :     0.090458
      f0      :     0.031527  f :     0.113255
      f+1     :     0.017379
      f-1     :     0.013421
      f+2     :     0.024271
      f-2     :     0.013899
      f+3     :     0.005679
      f-3     :     0.007078
  8 O s       :     3.398664  s :     3.398664
      pz      :     1.519753  p :     4.445545
      px      :     1.631584
      py      :     1.294208
      dz2     :     0.022534  d :     0.069644
      dxz     :     0.023477
      dyz     :     0.012042
      dx2y2   :     0.006785
      dxy     :     0.004805
      f0      :     0.001359  f :     0.005784
      f+1     :     0.001665
      f-1     :     0.000730
      f+2     :     0.001020
      f-2     :     0.000731
      f+3     :     0.000158
      f-3     :     0.000121
  9 H s       :     0.827017  s :     0.827017
      pz      :     0.012421  p :     0.060141
      px      :     0.030523
      py      :     0.017196
 10 H s       :     0.823253  s :     0.823253
      pz      :     0.028011  p :     0.060212
      px      :     0.018266
      py      :     0.013935
 11 H s       :     0.817076  s :     0.817076
      pz      :     0.029125  p :     0.060950
      px      :     0.019262
      py      :     0.012563
 12 H s       :     0.782687  s :     0.782687
      pz      :     0.010456  p :     0.056384
      px      :     0.030175
      py      :     0.015753
 13 H s       :     0.799322  s :     0.799322
      pz      :     0.030565  p :     0.058723
      px      :     0.015372
      py      :     0.012786
 14 H s       :     0.798276  s :     0.798276
      pz      :     0.030975  p :     0.059533
      px      :     0.014508
      py      :     0.014050
 15 H s       :     0.799501  s :     0.799501
      pz      :     0.012209  p :     0.054498
      px      :     0.007774
      py      :     0.034516
 16 H s       :     0.668499  s :     0.668499
      pz      :     0.048298  p :     0.157598
      px      :     0.029798
      py      :     0.079502
 17 H s       :     0.798377  s :     0.798377
      pz      :     0.030526  p :     0.059478
      px      :     0.014218
      py      :     0.014734
 18 H s       :     0.798340  s :     0.798340
      pz      :     0.012552  p :     0.058106
      px      :     0.014297
      py      :     0.031257


                      *****************************
                      * MAYER POPULATION ANALYSIS *
                      *****************************

  NA   - Mulliken gross atomic population
  ZA   - Total nuclear charge
  QA   - Mulliken gross atomic charge
  VA   - Mayer's total valence
  BVA  - Mayer's bonded valence
  FA   - Mayer's free valence

  ATOM       NA         ZA         QA         VA         BVA        FA
  0 C      6.3865     6.0000    -0.3865     3.9401     3.9401    -0.0000
  1 C      5.8533     6.0000     0.1467     3.6927     3.6927    -0.0000
  2 C      6.2164     6.0000    -0.2164     3.9155     3.9155    -0.0000
  3 C      6.2990     6.0000    -0.2990     3.9797     3.9797     0.0000
  4 C      5.7251     6.0000     0.2749     3.8323     3.8323    -0.0000
  5 O      8.5332     8.0000    -0.5332     1.8427     1.8427    -0.0000
  6 C      6.1974     6.0000    -0.1974     3.9232     3.9232     0.0000
  7 C      5.7319     6.0000     0.2681     4.0350     4.0350     0.0000
  8 O      8.4260     8.0000    -0.4260     2.0191     2.0191    -0.0000
  9 H      0.8960     1.0000     0.1040     0.9738     0.9738    -0.0000
 10 H      0.8845     1.0000     0.1155     0.9727     0.9727    -0.0000
 11 H      0.8633     1.0000     0.1367     0.9753     0.9753     0.0000
 12 H      0.8995     1.0000     0.1005     0.9873     0.9873     0.0000
 13 H      0.8713     1.0000     0.1287     0.9749     0.9749    -0.0000
 14 H      0.8640     1.0000     0.1360     0.9808     0.9808     0.0000
 15 H      0.9019     1.0000     0.0981     0.9685     0.9685    -0.0000
 16 H      0.6793     1.0000     0.3207     0.9183     0.9183    -0.0000
 17 H      0.8685     1.0000     0.1315     0.9958     0.9958     0.0000
 18 H      0.9029     1.0000     0.0971     0.9870     0.9870     0.0000

  Mayer bond orders larger than 0.1
B(  0-C ,  1-C ) :   0.9317 B(  0-C ,  9-H ) :   0.9789 B(  0-C , 10-H ) :   0.9852 
B(  0-C , 11-H ) :   0.9861 B(  1-C ,  2-C ) :   0.9498 B(  1-C ,  7-C ) :   0.9319 
B(  1-C , 12-H ) :   0.9707 B(  2-C ,  3-C ) :   1.9699 B(  2-C , 13-H ) :   0.9652 
B(  3-C ,  4-C ) :   0.9815 B(  3-C , 14-H ) :   0.9757 B(  4-C ,  5-O ) :   0.9152 
B(  4-C ,  6-C ) :   0.9830 B(  4-C , 15-H ) :   0.9570 B(  5-O , 16-H ) :   0.8862 
B(  6-C ,  7-C ) :   0.9825 B(  6-C , 17-H ) :   0.9752 B(  6-C , 18-H ) :   0.9636 
B(  7-C ,  8-O ) :   2.0346 

-------
TIMINGS
-------

Total SCF time: 0 days 0 hours 2 min 33 sec 

Total time                  ....     153.400 sec
Sum of individual times     ....     157.730 sec  (102.8%)

Fock matrix formation       ....     151.773 sec  ( 98.9%)
Diagonalization             ....       0.719 sec  (  0.5%)
Density matrix formation    ....       0.047 sec  (  0.0%)
Population analysis         ....       0.164 sec  (  0.1%)
Initial guess               ....       3.061 sec  (  2.0%)
Orbital Transformation      ....       0.000 sec  (  0.0%)
Orbital Orthonormalization  ....       0.000 sec  (  0.0%)
DIIS solution               ....       0.211 sec  (  0.1%)
SOSCF solution              ....       0.343 sec  (  0.2%)

   <<< Auxbasis replaced with dsgdb9nsd_085069.AUXC.tmp (Dim=834) >>> 


------------------------------------------------------------------------------
                              ORCA MP2 CALCULATION
------------------------------------------------------------------------------

Freezing NCore=18 chemical core electrons

   <<< Use J-auxbasis for calculation of Separable RI-J derivative contributions dsgdb9nsd_085069.AUXJ.tmp (Dim=859) >>> 


---------------------
RI-MP2 ENERGY+DENSITY
---------------------
Dimension of the basis                    ...  339
Memory devoted to MP2                     ... 2000 MB   
Data format for buffers                   ... DOUBLE
Compression type for matrix containers    ... UNCOMPRESSED
Overall scaling of the MP2 energy         ...   1.000e+00 Eh
Calculating two index integrals           ... done (    0.018 sec)
Cholesky decomposition of V**-1           ... done (    0.116 sec)

-----------------
RI-TRANSFORMATION (AUX index driven)
-----------------

Dimension of the orbital-basis         ... 339
Dimension of the aux-basis             ... 834
Transformation of internal MOs         ...    0-  33
Transformation of internal/external MOs...    0-  33 to   34- 338
Number Format for Storage              ... Double (8 Byte)
Integral mode                          ... Direct

First Phase: integral generation and transformation of MO indices
  Aux angular momentum 0               ... done (    0.797 sec)
  Aux angular momentum 1               ... done (    1.069 sec)
  Aux angular momentum 2               ... done (    1.136 sec)
  Aux angular momentum 3               ... done (    0.865 sec)
  Aux angular momentum 4               ... done (    0.400 sec)
Closing buffer VIJ ( 0.00 GB; CompressionRatio= 1.94)
Closing buffer VIA ( 0.06 GB; CompressionRatio= 1.00)
  Phase 1 completed in     4.365 sec
Second Phase: sorting and transformation of aux index

IJ-Transformation
Memory available                       ... 1986 MB 
Max. # MO pairs treated in a batch     ... 34    
# of internal orbitals                 ... 34
# batches for internal orbitals        ... 1
Closing buffer IJV ( 0.00 GB; CompressionRatio= 1.00)
(ij|v) transformation done in     0.187 sec

IA-Transformation
Memory available                       ... 1986 MB 
Max. # MO pairs treated in a batch     ... 34    
# of internal orbitals                 ... 34
# batches for internal orbitals        ... 1
Closing buffer IAV ( 0.06 GB; CompressionRatio= 1.00)
(ia|v) transformation done in     1.465 sec

  Phase 2 completed in     1.674 sec
RI-Integral transformation completed in     6.040 sec
Opening buffers                              ... done
Frozen core precalculation                   ... done

Starting loop over batches of integrals:

Operator 0  - window                       ... (  9- 33)x( 34-338)
Operator 0  - Memory available             ...  2000 MB
Operator 0  - Memory needed per MO         ...   3.9 MB
Operator 0  - Number of orbitals per batch ... 25
Operator 0  - Number of batches            ... 1

OPERATOR  0   PASS   0:  MOs     9 ...   33
  Reading integrals       ... ok
  Internal MO  11
  Internal MO  14
  Internal MO  17
  Internal MO  20
  Internal MO  23
  Internal MO  26
  Internal MO  29
  Internal MO  32
Time spent in pair loops =    38.014 sec
Deleting buffer (Ka|jb)[aa] ...done

-----------------------------------------------
 RI-MP2 CORRELATION ENERGY:     -1.583139310 Eh
-----------------------------------------------


---------------------
MP2 DENSITY FORMATION
---------------------

Completing the external part of the density      ... done
Storing the unrelaxed density                    ... done

Calculating G(D)                                 ... done
Completing the Lagrangian                        ... done
Solving the Z-vector equations                   ... 

------------------------------------------------------------------------------
                           ORCA CP-SCF CALCULATION
------------------------------------------------------------------------------

Input orbitals are from        ... dsgdb9nsd_085069.gbw
Input Perturbation             ... dsgdb9nsd_085069.pin.tmp
Wavefunction output            ... dsgdb9nsd_085069.pout.tmp
Perturbation mode              ... Real perturbation
Solver                         ... POPLE
Max. number of iterations      ... 128
Convergence tolerance          ... 1.000e-08
Integral handling              ... Direct
Number of perturbations        ... 1
Number of operators            ... 1
Orbital ranges used for CP-SCF:
 Operator 0:  Orbitals   0... 33  to  34...338
Variables per vector in CP-SCF ... 10370
Number of vectors sought       ... 1
     CP-SCF ITERATION   0: 
     CP-SCF ITERATION   1:      0.001531356
     CP-SCF ITERATION   2:      0.000248993
     CP-SCF ITERATION   3:      0.000017203
     CP-SCF ITERATION   4:      0.000002111
     CP-SCF ITERATION   5:      0.000000434
     CP-SCF ITERATION   6:      0.000000058
     CP-SCF ITERATION   7:      0.000000005
done
Finalizing the relaxed density                   ... done
Transforming P to the AO basis                   ... done
Storing the relaxed density                      ... done

                *********************************************
                * UNRELAXED MP2 DENSITY POPULATION ANALYSIS *
                *********************************************

------------------------------------------------------------------------------
                           ORCA POPULATION ANALYSIS
------------------------------------------------------------------------------
Input electron density              ... dsgdb9nsd_085069.pmp2ur
BaseName (.gbw .S,...)              ... dsgdb9nsd_085069

                    ********************************
                    * MULLIKEN POPULATION ANALYSIS *
                    ********************************

-----------------------
MULLIKEN ATOMIC CHARGES
-----------------------
   0 C :   -0.394554
   1 C :    0.136635
   2 C :   -0.219558
   3 C :   -0.302004
   4 C :    0.260629
   5 O :   -0.520043
   6 C :   -0.206309
   7 C :    0.246398
   8 O :   -0.401009
   9 H :    0.107274
  10 H :    0.118892
  11 H :    0.139698
  12 H :    0.105044
  13 H :    0.132663
  14 H :    0.139771
  15 H :    0.102282
  16 H :    0.318259
  17 H :    0.134927
  18 H :    0.101006
Sum of atomic charges:   -0.0000000

--------------------------------
MULLIKEN REDUCED ORBITAL CHARGES
--------------------------------
  0 C s       :     3.256668  s :     3.256668
      pz      :     1.067214  p :     3.030830
      px      :     1.050376
      py      :     0.913240
      dz2     :     0.018868  d :     0.098884
      dxz     :     0.018571
      dyz     :     0.018733
      dx2y2   :     0.016836
      dxy     :     0.025877
      f0      :     0.000849  f :     0.008172
      f+1     :     0.001718
      f-1     :     0.001033
      f+2     :     0.000992
      f-2     :     0.000673
      f+3     :     0.001269
      f-3     :     0.001638
  1 C s       :     2.919967  s :     2.919967
      pz      :     0.873711  p :     2.766815
      px      :     0.969084
      py      :     0.924021
      dz2     :     0.033577  d :     0.164329
      dxz     :     0.035169
      dyz     :     0.033881
      dx2y2   :     0.028887
      dxy     :     0.032816
      f0      :     0.001972  f :     0.012254
      f+1     :     0.002253
      f-1     :     0.001634
      f+2     :     0.001742
      f-2     :     0.001401
      f+3     :     0.001469
      f-3     :     0.001784
  2 C s       :     3.174648  s :     3.174648
      pz      :     0.978497  p :     2.901568
      px      :     0.963786
      py      :     0.959285
      dz2     :     0.028407  d :     0.131467
      dxz     :     0.036623
      dyz     :     0.018448
      dx2y2   :     0.026723
      dxy     :     0.021266
      f0      :     0.001951  f :     0.011874
      f+1     :     0.001978
      f-1     :     0.001072
      f+2     :     0.001396
      f-2     :     0.001755
      f+3     :     0.002452
      f-3     :     0.001271
  3 C s       :     3.211398  s :     3.211398
      pz      :     0.981916  p :     2.956596
      px      :     1.004722
      py      :     0.969957
      dz2     :     0.025070  d :     0.122161
      dxz     :     0.036627
      dyz     :     0.018318
      dx2y2   :     0.024437
      dxy     :     0.017709
      f0      :     0.001797  f :     0.011849
      f+1     :     0.001998
      f-1     :     0.001081
      f+2     :     0.001472
      f-2     :     0.001755
      f+3     :     0.002439
      f-3     :     0.001307
  4 C s       :     3.005428  s :     3.005428
      pz      :     0.868298  p :     2.517091
      px      :     0.650428
      py      :     0.998365
      dz2     :     0.033178  d :     0.199795
      dxz     :     0.056225
      dyz     :     0.028274
      dx2y2   :     0.048054
      dxy     :     0.034063
      f0      :     0.002767  f :     0.017058
      f+1     :     0.002642
      f-1     :     0.001769
      f+2     :     0.003356
      f-2     :     0.001653
      f+3     :     0.002020
      f-3     :     0.002850
  5 O s       :     3.798505  s :     3.798505
      pz      :     1.842697  p :     4.655705
      px      :     1.368954
      py      :     1.444054
      dz2     :     0.010158  d :     0.061347
      dxz     :     0.009496
      dyz     :     0.009250
      dx2y2   :     0.022885
      dxy     :     0.009558
      f0      :     0.000690  f :     0.004486
      f+1     :     0.000681
      f-1     :     0.000561
      f+2     :     0.000707
      f-2     :     0.000459
      f+3     :     0.000679
      f-3     :     0.000708
  6 C s       :     3.114983  s :     3.114983
      pz      :     1.031509  p :     2.966970
      px      :     0.932174
      py      :     1.003287
      dz2     :     0.029841  d :     0.114412
      dxz     :     0.021621
      dyz     :     0.018266
      dx2y2   :     0.028700
      dxy     :     0.015984
      f0      :     0.001379  f :     0.009944
      f+1     :     0.001619
      f-1     :     0.001705
      f+2     :     0.001464
      f-2     :     0.001014
      f+3     :     0.001603
      f-3     :     0.001161
  7 C s       :     3.127018  s :     3.127018
      pz      :     0.799606  p :     2.368449
      px      :     0.906171
      py      :     0.662671
      dz2     :     0.069585  d :     0.235817
      dxz     :     0.056544
      dyz     :     0.042853
      dx2y2   :     0.036519
      dxy     :     0.030317
      f0      :     0.005519  f :     0.022318
      f+1     :     0.003705
      f-1     :     0.002673
      f+2     :     0.004186
      f-2     :     0.002916
      f+3     :     0.001576
      f-3     :     0.001743
  8 O s       :     3.829359  s :     3.829359
      pz      :     1.450424  p :     4.503776
      px      :     1.704392
      py      :     1.348960
      dz2     :     0.015772  d :     0.063067
      dxz     :     0.015481
      dyz     :     0.014308
      dx2y2   :     0.008009
      dxy     :     0.009498
      f0      :     0.000854  f :     0.004807
      f+1     :     0.001032
      f-1     :     0.000642
      f+2     :     0.000685
      f-2     :     0.000797
      f+3     :     0.000406
      f-3     :     0.000391
  9 H s       :     0.867812  s :     0.867812
      pz      :     0.004757  p :     0.024914
      px      :     0.012459
      py      :     0.007698
 10 H s       :     0.856117  s :     0.856117
      pz      :     0.011461  p :     0.024990
      px      :     0.007427
      py      :     0.006102
 11 H s       :     0.835348  s :     0.835348
      pz      :     0.011879  p :     0.024954
      px      :     0.007715
      py      :     0.005359
 12 H s       :     0.869023  s :     0.869023
      pz      :     0.004390  p :     0.025932
      px      :     0.014621
      py      :     0.006921
 13 H s       :     0.841056  s :     0.841056
      pz      :     0.013882  p :     0.026281
      px      :     0.006936
      py      :     0.005464
 14 H s       :     0.833811  s :     0.833811
      pz      :     0.013927  p :     0.026418
      px      :     0.006498
      py      :     0.005993
 15 H s       :     0.872438  s :     0.872438
      pz      :     0.005080  p :     0.025280
      px      :     0.003724
      py      :     0.016477
 16 H s       :     0.634350  s :     0.634350
      pz      :     0.016940  p :     0.047391
      px      :     0.011290
      py      :     0.019162
 17 H s       :     0.839531  s :     0.839531
      pz      :     0.013529  p :     0.025541
      px      :     0.006085
      py      :     0.005928
 18 H s       :     0.873513  s :     0.873513
      pz      :     0.004826  p :     0.025481
      px      :     0.006362
      py      :     0.014293


                     *******************************
                     * LOEWDIN POPULATION ANALYSIS *
                     *******************************

----------------------
LOEWDIN ATOMIC CHARGES
----------------------
   0 C :   -0.249172
   1 C :   -0.215742
   2 C :   -0.127936
   3 C :   -0.154406
   4 C :   -0.300852
   5 O :   -0.036740
   6 C :   -0.176315
   7 C :   -0.252018
   8 O :    0.097202
   9 H :    0.114747
  10 H :    0.118470
  11 H :    0.123887
  12 H :    0.162476
  13 H :    0.143659
  14 H :    0.143902
  15 H :    0.147612
  16 H :    0.172281
  17 H :    0.143861
  18 H :    0.145083

-------------------------------
LOEWDIN REDUCED ORBITAL CHARGES
-------------------------------
  0 C s       :     2.825480  s :     2.825480
      pz      :     1.054392  p :     3.094630
      px      :     1.049782
      py      :     0.990455
      dz2     :     0.048465  d :     0.299567
      dxz     :     0.051050
      dyz     :     0.062415
      dx2y2   :     0.053286
      dxy     :     0.084351
      f0      :     0.002709  f :     0.029495
      f+1     :     0.004277
      f-1     :     0.004286
      f+2     :     0.004523
      f-2     :     0.002554
      f+3     :     0.005181
      f-3     :     0.005966
  1 C s       :     2.722856  s :     2.722856
      pz      :     0.972123  p :     2.922197
      px      :     0.963861
      py      :     0.986212
      dz2     :     0.125195  d :     0.514681
      dxz     :     0.096358
      dyz     :     0.102318
      dx2y2   :     0.094898
      dxy     :     0.095913
      f0      :     0.009630  f :     0.056008
      f+1     :     0.008722
      f-1     :     0.008428
      f+2     :     0.008937
      f-2     :     0.006699
      f+3     :     0.006181
      f-3     :     0.007411
  2 C s       :     2.769827  s :     2.769827
      pz      :     0.963120  p :     2.888323
      px      :     1.025746
      py      :     0.899457
      dz2     :     0.086181  d :     0.423245
      dxz     :     0.139777
      dyz     :     0.060538
      dx2y2   :     0.071747
      dxy     :     0.065002
      f0      :     0.009444  f :     0.046542
      f+1     :     0.007586
      f-1     :     0.004282
      f+2     :     0.005642
      f-2     :     0.007275
      f+3     :     0.006261
      f-3     :     0.006052
  3 C s       :     2.777332  s :     2.777332
      pz      :     0.968304  p :     2.918699
      px      :     1.029617
      py      :     0.920778
      dz2     :     0.083641  d :     0.412218
      dxz     :     0.132793
      dyz     :     0.065094
      dx2y2   :     0.070272
      dxy     :     0.060417
      f0      :     0.008709  f :     0.046157
      f+1     :     0.007685
      f-1     :     0.004496
      f+2     :     0.005374
      f-2     :     0.007637
      f+3     :     0.006161
      f-3     :     0.006095
  4 C s       :     2.736114  s :     2.736114
      pz      :     0.993980  p :     2.791298
      px      :     0.798231
      py      :     0.999088
      dz2     :     0.135632  d :     0.680267
      dxz     :     0.175569
      dyz     :     0.091699
      dx2y2   :     0.181970
      dxy     :     0.095396
      f0      :     0.015363  f :     0.093173
      f+1     :     0.015206
      f-1     :     0.007419
      f+2     :     0.016784
      f-2     :     0.008871
      f+3     :     0.013364
      f-3     :     0.016165
  5 O s       :     3.363250  s :     3.363250
      pz      :     1.728254  p :     4.569167
      px      :     1.407084
      py      :     1.433829
      dz2     :     0.013635  d :     0.097130
      dxz     :     0.017530
      dyz     :     0.011170
      dx2y2   :     0.035112
      dxy     :     0.019682
      f0      :     0.000940  f :     0.007192
      f+1     :     0.000936
      f-1     :     0.000552
      f+2     :     0.001257
      f-2     :     0.000496
      f+3     :     0.001153
      f-3     :     0.001858
  6 C s       :     2.774209  s :     2.774209
      pz      :     0.999114  p :     2.979973
      px      :     0.983483
      py      :     0.997375
      dz2     :     0.096244  d :     0.381076
      dxz     :     0.077899
      dyz     :     0.055784
      dx2y2   :     0.095799
      dxy     :     0.055348
      f0      :     0.005828  f :     0.041057
      f+1     :     0.006974
      f-1     :     0.005830
      f+2     :     0.006578
      f-2     :     0.004619
      f+3     :     0.006509
      f-3     :     0.004719
  7 C s       :     2.754573  s :     2.754573
      pz      :     0.944368  p :     2.592059
      px      :     0.994047
      py      :     0.653644
      dz2     :     0.228533  d :     0.785872
      dxz     :     0.224401
      dyz     :     0.122255
      dx2y2   :     0.117461
      dxy     :     0.093223
      f0      :     0.032146  f :     0.119514
      f+1     :     0.019299
      f-1     :     0.014225
      f+2     :     0.024878
      f-2     :     0.014720
      f+3     :     0.006493
      f-3     :     0.007753
  8 O s       :     3.394092  s :     3.394092
      pz      :     1.505206  p :     4.400468
      px      :     1.616564
      py      :     1.278698
      dz2     :     0.028599  d :     0.099168
      dxz     :     0.029833
      dyz     :     0.017926
      dx2y2   :     0.012276
      dxy     :     0.010534
      f0      :     0.001869  f :     0.009070
      f+1     :     0.002272
      f-1     :     0.001206
      f+2     :     0.001486
      f-2     :     0.001221
      f+3     :     0.000523
      f-3     :     0.000492
  9 H s       :     0.819749  s :     0.819749
      pz      :     0.013719  p :     0.065504
      px      :     0.032882
      py      :     0.018903
 10 H s       :     0.816072  s :     0.816072
      pz      :     0.030167  p :     0.065457
      px      :     0.019874
      py      :     0.015417
 11 H s       :     0.810008  s :     0.810008
      pz      :     0.031238  p :     0.066105
      px      :     0.020897
      py      :     0.013970
 12 H s       :     0.775657  s :     0.775657
      pz      :     0.011839  p :     0.061867
      px      :     0.032682
      py      :     0.017346
 13 H s       :     0.792337  s :     0.792337
      pz      :     0.032886  p :     0.064004
      px      :     0.016973
      py      :     0.014146
 14 H s       :     0.791379  s :     0.791379
      pz      :     0.033271  p :     0.064719
      px      :     0.016039
      py      :     0.015409
 15 H s       :     0.792388  s :     0.792388
      pz      :     0.013642  p :     0.060000
      px      :     0.009258
      py      :     0.037100
 16 H s       :     0.666477  s :     0.666477
      pz      :     0.049215  p :     0.161241
      px      :     0.030655
      py      :     0.081372
 17 H s       :     0.791493  s :     0.791493
      pz      :     0.032779  p :     0.064646
      px      :     0.015722
      py      :     0.016145
 18 H s       :     0.791278  s :     0.791278
      pz      :     0.013933  p :     0.063639
      px      :     0.015876
      py      :     0.033831


                      *****************************
                      * MAYER POPULATION ANALYSIS *
                      *****************************

  NA   - Mulliken gross atomic population
  ZA   - Total nuclear charge
  QA   - Mulliken gross atomic charge
  VA   - Mayer's total valence
  BVA  - Mayer's bonded valence
  FA   - Mayer's free valence

  ATOM       NA         ZA         QA         VA         BVA        FA
  0 C      6.3946     6.0000    -0.3946     4.0616     3.7542     0.3074
  1 C      5.8634     6.0000     0.1366     3.7950     3.4642     0.3308
  2 C      6.2196     6.0000    -0.2196     4.0241     3.6517     0.3724
  3 C      6.3020     6.0000    -0.3020     4.0940     3.7147     0.3792
  4 C      5.7394     6.0000     0.2606     3.9148     3.6030     0.3118
  5 O      8.5200     8.0000    -0.5200     2.1397     1.7321     0.4076
  6 C      6.2063     6.0000    -0.2063     4.0361     3.7123     0.3238
  7 C      5.7536     6.0000     0.2464     4.1103     3.7537     0.3566
  8 O      8.4010     8.0000    -0.4010     2.3153     1.8592     0.4561
  9 H      0.8927     1.0000     0.1073     0.9827     0.9319     0.0509
 10 H      0.8811     1.0000     0.1189     0.9812     0.9313     0.0498
 11 H      0.8603     1.0000     0.1397     0.9833     0.9342     0.0491
 12 H      0.8950     1.0000     0.1050     0.9957     0.9438     0.0520
 13 H      0.8673     1.0000     0.1327     0.9824     0.9335     0.0489
 14 H      0.8602     1.0000     0.1398     0.9883     0.9395     0.0488
 15 H      0.8977     1.0000     0.1023     0.9768     0.9264     0.0503
 16 H      0.6817     1.0000     0.3183     0.9248     0.8728     0.0520
 17 H      0.8651     1.0000     0.1349     1.0035     0.9541     0.0494
 18 H      0.8990     1.0000     0.1010     0.9956     0.9425     0.0531

  Mayer bond orders larger than 0.1
B(  0-C ,  1-C ) :   0.8707 B(  0-C ,  9-H ) :   0.9385 B(  0-C , 10-H ) :   0.9457 
B(  0-C , 11-H ) :   0.9468 B(  1-C ,  2-C ) :   0.8902 B(  1-C ,  7-C ) :   0.8721 
B(  1-C , 12-H ) :   0.9302 B(  2-C ,  3-C ) :   1.8131 B(  2-C , 13-H ) :   0.9266 
B(  3-C ,  4-C ) :   0.9221 B(  3-C , 14-H ) :   0.9373 B(  4-C ,  5-O ) :   0.8539 
B(  4-C ,  6-C ) :   0.9207 B(  4-C , 15-H ) :   0.9176 B(  5-O , 16-H ) :   0.8425 
B(  6-C ,  7-C ) :   0.9223 B(  6-C , 17-H ) :   0.9363 B(  6-C , 18-H ) :   0.9225 
B(  7-C ,  8-O ) :   1.8831 


                *******************************************
                * RELAXED MP2 DENSITY POPULATION ANALYSIS *
                *******************************************

------------------------------------------------------------------------------
                           ORCA POPULATION ANALYSIS
[...]
      f0      :     0.001912  f :     0.011187
      f+1     :     0.001744
      f-1     :     0.001006
      f+2     :     0.001384
      f-2     :     0.001726
      f+3     :     0.002230
      f-3     :     0.001185
  3 C s       :     3.228378  s :     3.228378
      pz      :     0.963500  p :     2.924099
      px      :     0.994915
      py      :     0.965683
      dz2     :     0.020817  d :     0.106880
      dxz     :     0.033330
      dyz     :     0.018090
      dx2y2   :     0.019349
      dxy     :     0.015294
      f0      :     0.001773  f :     0.011170
      f+1     :     0.001745
      f-1     :     0.001027
      f+2     :     0.001446
      f-2     :     0.001727
      f+3     :     0.002226
      f-3     :     0.001226
  4 C s       :     3.057410  s :     3.057410
      pz      :     0.875245  p :     2.579990
      px      :     0.671785
      py      :     1.032960
      dz2     :     0.033155  d :     0.191526
      dxz     :     0.052791
      dyz     :     0.025395
      dx2y2   :     0.046194
      dxy     :     0.033991
      f0      :     0.002741  f :     0.016268
      f+1     :     0.002438
      f-1     :     0.001621
      f+2     :     0.003258
      f-2     :     0.001538
      f+3     :     0.001970
      f-3     :     0.002702
  5 O s       :     3.796136  s :     3.796136
      pz      :     1.819836  p :     4.600912
      px      :     1.358977
      py      :     1.422100
      dz2     :     0.009818  d :     0.058975
      dxz     :     0.009818
      dyz     :     0.009010
      dx2y2   :     0.020370
      dxy     :     0.009959
      f0      :     0.000686  f :     0.004417
      f+1     :     0.000671
      f-1     :     0.000558
      f+2     :     0.000696
      f-2     :     0.000459
      f+3     :     0.000651
      f-3     :     0.000697
  6 C s       :     3.133853  s :     3.133853
      pz      :     1.027835  p :     2.992603
      px      :     0.955252
      py      :     1.009516
      dz2     :     0.026726  d :     0.102799
      dxz     :     0.021590
      dyz     :     0.015162
      dx2y2   :     0.023222
      dxy     :     0.016100
      f0      :     0.001391  f :     0.009448
      f+1     :     0.001447
      f-1     :     0.001553
      f+2     :     0.001459
      f-2     :     0.000973
      f+3     :     0.001415
      f-3     :     0.001210
  7 C s       :     3.140902  s :     3.140902
      pz      :     0.813183  p :     2.461794
      px      :     0.915672
      py      :     0.732939
      dz2     :     0.065279  d :     0.221495
      dxz     :     0.056272
      dyz     :     0.037071
      dx2y2   :     0.034292
      dxy     :     0.028581
      f0      :     0.005176  f :     0.020786
      f+1     :     0.003434
      f-1     :     0.002489
      f+2     :     0.003990
      f-2     :     0.002600
      f+3     :     0.001404
      f-3     :     0.001691
  8 O s       :     3.805227  s :     3.805227
      pz      :     1.435428  p :     4.399597
      px      :     1.667224
      py      :     1.296945
      dz2     :     0.015200  d :     0.060045
      dxz     :     0.014359
      dyz     :     0.013353
      dx2y2   :     0.008155
      dxy     :     0.008978
      f0      :     0.000851  f :     0.004671
      f+1     :     0.000961
      f-1     :     0.000621
      f+2     :     0.000675
      f-2     :     0.000772
      f+3     :     0.000406
      f-3     :     0.000385
  9 H s       :     0.847995  s :     0.847995
      pz      :     0.005017  p :     0.023913
      px      :     0.011437
      py      :     0.007459
 10 H s       :     0.837321  s :     0.837321
      pz      :     0.010599  p :     0.023979
      px      :     0.007235
      py      :     0.006145
 11 H s       :     0.822102  s :     0.822102
      pz      :     0.010910  p :     0.023862
      px      :     0.007460
      py      :     0.005492
 12 H s       :     0.857815  s :     0.857815
      pz      :     0.004663  p :     0.024757
      px      :     0.013310
      py      :     0.006784
 13 H s       :     0.843792  s :     0.843792
      pz      :     0.012581  p :     0.024909
      px      :     0.006762
      py      :     0.005566
 14 H s       :     0.839629  s :     0.839629
      pz      :     0.012678  p :     0.025074
      px      :     0.006404
      py      :     0.005993
 15 H s       :     0.856034  s :     0.856034
      pz      :     0.005236  p :     0.023945
      px      :     0.003886
      py      :     0.014823
 16 H s       :     0.640778  s :     0.640778
      pz      :     0.017912  p :     0.048066
      px      :     0.011685
      py      :     0.018469
 17 H s       :     0.831155  s :     0.831155
      pz      :     0.012332  p :     0.024395
      px      :     0.006156
      py      :     0.005906
 18 H s       :     0.856463  s :     0.856463
      pz      :     0.005063  p :     0.024506
      px      :     0.006406
      py      :     0.013038


                     *******************************
                     * LOEWDIN POPULATION ANALYSIS *
                     *******************************

----------------------
LOEWDIN ATOMIC CHARGES
----------------------
   0 C :   -0.272953
   1 C :   -0.234914
   2 C :   -0.135111
   3 C :   -0.161541
   4 C :   -0.328024
   5 O :   -0.015184
   6 C :   -0.201697
   7 C :   -0.293615
   8 O :    0.159796
   9 H :    0.123481
  10 H :    0.127192
  11 H :    0.131088
  12 H :    0.169893
  13 H :    0.148365
  14 H :    0.149083
  15 H :    0.155927
  16 H :    0.174312
  17 H :    0.149818
  18 H :    0.154083

-------------------------------
LOEWDIN REDUCED ORBITAL CHARGES
-------------------------------
  0 C s       :     2.830799  s :     2.830799
      pz      :     1.067150  p :     3.125550
      px      :     1.063772
      py      :     0.994628
      dz2     :     0.044311  d :     0.287454
      dxz     :     0.047035
      dyz     :     0.063652
      dx2y2   :     0.049568
      dxy     :     0.082888
      f0      :     0.002737  f :     0.029149
      f+1     :     0.004122
      f-1     :     0.004206
      f+2     :     0.004582
      f-2     :     0.002478
      f+3     :     0.005168
      f-3     :     0.005855
  1 C s       :     2.730516  s :     2.730516
      pz      :     0.982525  p :     2.939764
      px      :     0.972081
      py      :     0.985158
      dz2     :     0.123551  d :     0.508522
      dxz     :     0.092397
      dyz     :     0.104730
      dx2y2   :     0.092309
      dxy     :     0.095535
      f0      :     0.009838  f :     0.056112
      f+1     :     0.008400
      f-1     :     0.008502
      f+2     :     0.009138
      f-2     :     0.006728
      f+3     :     0.006238
      f-3     :     0.007269
  2 C s       :     2.775198  s :     2.775198
      pz      :     0.963835  p :     2.897838
      px      :     1.026412
      py      :     0.907592
      dz2     :     0.085314  d :     0.415688
      dxz     :     0.138517
      dyz     :     0.060791
      dx2y2   :     0.067480
      dxy     :     0.063587
      f0      :     0.009467  f :     0.046387
      f+1     :     0.007358
      f-1     :     0.004271
      f+2     :     0.005601
      f-2     :     0.007264
      f+3     :     0.006172
      f-3     :     0.006254
  3 C s       :     2.783843  s :     2.783843
      pz      :     0.970772  p :     2.927396
      px      :     1.030145
      py      :     0.926478
      dz2     :     0.081796  d :     0.404204
      dxz     :     0.131701
      dyz     :     0.064826
      dx2y2   :     0.066852
      dxy     :     0.059029
      f0      :     0.008765  f :     0.046097
      f+1     :     0.007412
      f-1     :     0.004442
      f+2     :     0.005365
      f-2     :     0.007644
      f+3     :     0.006185
      f-3     :     0.006285
  4 C s       :     2.743565  s :     2.743565
      pz      :     0.999147  p :     2.814990
      px      :     0.808001
      py      :     1.007842
      dz2     :     0.134606  d :     0.677654
      dxz     :     0.177006
      dyz     :     0.090596
      dx2y2   :     0.179146
      dxy     :     0.096301
      f0      :     0.015224  f :     0.091814
      f+1     :     0.015138
      f-1     :     0.007374
      f+2     :     0.016280
      f-2     :     0.008914
      f+3     :     0.013195
      f-3     :     0.015688
  5 O s       :     3.367334  s :     3.367334
      pz      :     1.713335  p :     4.543900
      px      :     1.398938
      py      :     1.431627
      dz2     :     0.013634  d :     0.096658
      dxz     :     0.018073
      dyz     :     0.011078
      dx2y2   :     0.033783
      dxy     :     0.020091
      f0      :     0.000950  f :     0.007291
      f+1     :     0.000958
      f-1     :     0.000555
      f+2     :     0.001274
      f-2     :     0.000498
      f+3     :     0.001181
      f-3     :     0.001875
  6 C s       :     2.782752  s :     2.782752
      pz      :     1.004089  p :     3.005233
      px      :     0.996142
      py      :     1.005002
      dz2     :     0.093057  d :     0.372678
      dxz     :     0.078574
      dyz     :     0.052696
      dx2y2   :     0.090944
      dxy     :     0.057406
      f0      :     0.005844  f :     0.041033
      f+1     :     0.006796
      f-1     :     0.005723
      f+2     :     0.006642
      f-2     :     0.004648
      f+3     :     0.006329
      f-3     :     0.005051
  7 C s       :     2.759313  s :     2.759313
      pz      :     0.943261  p :     2.639210
      px      :     0.989168
      py      :     0.706782
      dz2     :     0.228800  d :     0.780345
      dxz     :     0.227392
      dyz     :     0.115695
      dx2y2   :     0.117191
      dxy     :     0.091266
      f0      :     0.030223  f :     0.114747
      f+1     :     0.019160
      f-1     :     0.013545
      f+2     :     0.023938
      f-2     :     0.014133
      f+3     :     0.006176
      f-3     :     0.007574
  8 O s       :     3.396494  s :     3.396494
      pz      :     1.496414  p :     4.335182
      px      :     1.597291
      py      :     1.241477
      dz2     :     0.028815  d :     0.099334
      dxz     :     0.029230
      dyz     :     0.018200
      dx2y2   :     0.012506
      dxy     :     0.010583
      f0      :     0.001896  f :     0.009194
      f+1     :     0.002274
      f-1     :     0.001230
      f+2     :     0.001488
      f-2     :     0.001280
      f+3     :     0.000530
      f-3     :     0.000497
  9 H s       :     0.810146  s :     0.810146
      pz      :     0.014278  p :     0.066373
      px      :     0.032895
      py      :     0.019200
 10 H s       :     0.806435  s :     0.806435
      pz      :     0.030221  p :     0.066373
      px      :     0.020230
      py      :     0.015923
 11 H s       :     0.802124  s :     0.802124
      pz      :     0.031083  p :     0.066788
      px      :     0.021182
      py      :     0.014523
 12 H s       :     0.767182  s :     0.767182
      pz      :     0.012664  p :     0.062925
      px      :     0.032534
      py      :     0.017727
 13 H s       :     0.787156  s :     0.787156
      pz      :     0.032357  p :     0.064478
      px      :     0.017462
      py      :     0.014659
 14 H s       :     0.785742  s :     0.785742
      pz      :     0.032829  p :     0.065175
      px      :     0.016573
      py      :     0.015773
 15 H s       :     0.783397  s :     0.783397
      pz      :     0.014236  p :     0.060676
      px      :     0.009763
      py      :     0.036677
 16 H s       :     0.663502  s :     0.663502
      pz      :     0.050078  p :     0.162187
      px      :     0.030810
      py      :     0.081298
 17 H s       :     0.784631  s :     0.784631
      pz      :     0.032560  p :     0.065551
      px      :     0.016427
      py      :     0.016563
 18 H s       :     0.780980  s :     0.780980
      pz      :     0.014510  p :     0.064937
      px      :     0.016603
      py      :     0.033824


                      *****************************
                      * MAYER POPULATION ANALYSIS *
                      *****************************

  NA   - Mulliken gross atomic population
  ZA   - Total nuclear charge
  QA   - Mulliken gross atomic charge
  VA   - Mayer's total valence
  BVA  - Mayer's bonded valence
  FA   - Mayer's free valence

  ATOM       NA         ZA         QA         VA         BVA        FA
  0 C      6.4329     6.0000    -0.4329     4.0199     3.7155     0.3043
  1 C      5.9585     6.0000     0.0415     3.7977     3.4716     0.3261
  2 C      6.1787     6.0000    -0.1787     3.9874     3.6236     0.3638
  3 C      6.2705     6.0000    -0.2705     4.0832     3.7127     0.3705
  4 C      5.8452     6.0000     0.1548     3.9900     3.6828     0.3073
  5 O      8.4604     8.0000    -0.4604     2.2127     1.8134     0.3993
  6 C      6.2387     6.0000    -0.2387     3.9133     3.5944     0.3189
  7 C      5.8450     6.0000     0.1550     4.2350     3.8948     0.3402
  8 O      8.2695     8.0000    -0.2695     2.4613     2.0219     0.4395
  9 H      0.8719     1.0000     0.1281     0.9781     0.9281     0.0499
 10 H      0.8613     1.0000     0.1387     0.9744     0.9255     0.0490
 11 H      0.8460     1.0000     0.1540     0.9779     0.9297     0.0482
 12 H      0.8826     1.0000     0.1174     0.9906     0.9400     0.0506
 13 H      0.8687     1.0000     0.1313     0.9772     0.9289     0.0483
 14 H      0.8647     1.0000     0.1353     0.9877     0.9396     0.0480
 15 H      0.8800     1.0000     0.1200     0.9621     0.9128     0.0493
 16 H      0.6888     1.0000     0.3112     0.9292     0.8773     0.0519
 17 H      0.8555     1.0000     0.1445     1.0037     0.9558     0.0479
 18 H      0.8810     1.0000     0.1190     0.9934     0.9419     0.0516

  Mayer bond orders larger than 0.1
B(  0-C ,  1-C ) :   0.8803 B(  0-C ,  9-H ) :   0.9299 B(  0-C , 10-H ) :   0.9341 
B(  0-C , 11-H ) :   0.9342 B(  1-C ,  2-C ) :   0.9042 B(  1-C ,  7-C ) :   0.8781 
B(  1-C , 12-H ) :   0.9099 B(  2-C ,  3-C ) :   1.7626 B(  2-C , 13-H ) :   0.9157 
B(  3-C ,  4-C ) :   0.9499 B(  3-C , 14-H ) :   0.9311 B(  4-C ,  5-O ) :   0.9014 
B(  4-C ,  6-C ) :   0.9102 B(  4-C , 15-H ) :   0.9005 B(  5-O , 16-H ) :   0.8411 
B(  6-C ,  7-C ) :   0.9060 B(  6-C , 17-H ) :   0.9190 B(  6-C , 18-H ) :   0.9038 
B(  7-C ,  8-O ) :   2.0323 


-------
TIMINGS
-------

Total time                :  886.662 sec
Integral trafo            :    6.048 sec (  0.7%)
FC preparation            :    3.615 sec (  0.4%)
I/O of integrals          :    0.052 sec (  0.0%)
K(i,j) Operators          :    9.263 sec (  1.0%)
T(i,j) pair energies      :    0.814 sec (  0.1%)
V-calculation             :    0.018 sec (  0.0%)
V**(-1/2)                 :    0.116 sec (  0.0%)
Gamma(ia|P)               :    9.226 sec (  1.0%)
Gamma-Trafo               :    1.455 sec (  0.2%)
D(virtual)                :    3.502 sec (  0.4%)
D(internal)               :    3.112 sec (  0.4%)
W(virtual)                :    0.000 sec (  0.0%)
W(internal)               :    0.000 sec (  0.0%)
L(virtual)                :   10.108 sec (  1.1%)
L(internal)               :    0.187 sec (  0.0%)
G(D)                      :  104.406 sec ( 11.8%)
G(Z)                      :    0.000 sec (  0.0%)
Z-Vector Solution         :  734.027 sec ( 82.8%)
3-Index Derivative        :    0.000 sec (  0.0%)
2-Index Derivative        :    0.000 sec (  0.0%)
Separable Gradient (RIJ)  :    0.000 sec (  0.0%)
Separable Gradient (X)    :    0.000 sec (  0.0%)


---------------------------------------
MP2 TOTAL ENERGY:     -422.348343998 Eh
---------------------------------------

-------------------------   --------------------
FINAL SINGLE POINT ENERGY      -422.348343997790
-------------------------   --------------------


                            ***************************************
                            *     ORCA property calculations      *
                            ***************************************

                                    ---------------------
                                    Active property flags
                                    ---------------------
   (+) Dipole Moment


------------------------------------------------------------------------------
                       ORCA ELECTRIC PROPERTIES CALCULATION
------------------------------------------------------------------------------

Dipole Moment Calculation                       ... on
Quadrupole Moment Calculation                   ... off
Polarizability Calculation                      ... off
GBWName                                         ... dsgdb9nsd_085069.gbw
Electron density file                           ... dsgdb9nsd_085069.scfp.tmp

-------------
DIPOLE MOMENT
-------------
                                X             Y             Z
Electronic contribution:      1.14375      -4.03863       2.36261
Nuclear contribution   :     -1.08734       4.88371      -3.49802
                        -----------------------------------------
Total Dipole Moment    :      0.05641       0.84508      -1.13541
                        -----------------------------------------
Magnitude (a.u.)       :      1.41651
Magnitude (Debye)      :      3.60047


                         *** MP2 UNRELAXED DENSITY ***

------------------------------------------------------------------------------
                       ORCA ELECTRIC PROPERTIES CALCULATION
------------------------------------------------------------------------------

Dipole Moment Calculation                       ... on
Quadrupole Moment Calculation                   ... off
Polarizability Calculation                      ... off
GBWName                                         ... dsgdb9nsd_085069.gbw
Electron density file                           ... dsgdb9nsd_085069.pmp2ur

-------------
DIPOLE MOMENT
-------------
                                X             Y             Z
Electronic contribution:      1.13555      -4.06051       2.40586
Nuclear contribution   :     -1.08734       4.88371      -3.49802
                        -----------------------------------------
Total Dipole Moment    :      0.04821       0.82319      -1.09215
                        -----------------------------------------
Magnitude (a.u.)       :      1.36849
Magnitude (Debye)      :      3.47843


                           *** MP2 RELAXED DENSITY ***

------------------------------------------------------------------------------
                       ORCA ELECTRIC PROPERTIES CALCULATION
------------------------------------------------------------------------------

Dipole Moment Calculation                       ... on
Quadrupole Moment Calculation                   ... off
Polarizability Calculation                      ... off
GBWName                                         ... dsgdb9nsd_085069.gbw
Electron density file                           ... dsgdb9nsd_085069.pmp2re

-------------
DIPOLE MOMENT
-------------
                                X             Y             Z
Electronic contribution:      1.09085      -4.11117       2.54326
Nuclear contribution   :     -1.08734       4.88371      -3.49802
                        -----------------------------------------
Total Dipole Moment    :      0.00350       0.77254      -0.95475
                        -----------------------------------------
Magnitude (a.u.)       :      1.22816
Magnitude (Debye)      :      3.12174


Timings for individual modules:

Sum of individual times         ...     1044.139 sec (=  17.402 min)
GTO integral calculation        ...        0.571 sec (=   0.010 min)   0.1 %
SCF iterations                  ...      156.755 sec (=   2.613 min)  15.0 %
MP2 module                      ...      886.813 sec (=  14.780 min)  84.9 %
                             ****ORCA TERMINATED NORMALLY****
TOTAL RUN TIME: 0 days 0 hours 17 minutes 24 seconds 613 msec
