
                                 *****************
                                 * O   R   C   A *
                                 *****************

           --- An Ab Initio, DFT and Semiempirical electronic structure package ---

                  #######################################################
                  #                        -***-                        #
                  #  Department of molecular theory and spectroscopy    #
                  #              Directorship: Frank Neese              #
                  # Max Planck Institute for Chemical Energy Conversion #
                  #                  D-45470 Muelheim/Ruhr              #
                  #                       Germany                       #
                  #                                                     #
                  #                  All rights reserved                #
                  #                        -***-                        #
                  #######################################################


                         Program Version 3.0.3 - RELEASE   -


 With contributions from (in alphabetic order):
   Ute Becker             : Parallelization
   Dmytro Bykov           : SCF Hessian
   Dmitry Ganyushin       : Spin-Orbit,Spin-Spin,Magnetic field MRCI
   Andreas Hansen         : Spin unrestricted coupled pair/coupled cluster methods
   Dimitrios Liakos       : Extrapolation schemes; parallel MDCI
   Robert Izsak           : Overlap fitted RIJCOSX, COSX-SCS-MP3
   Christian Kollmar      : KDIIS, OOCD, Brueckner-CCSD(T), CCSD density
   Simone Kossmann        : Meta GGA functionals, TD-DFT gradient, OOMP2, MP2 Hessian
   Taras Petrenko         : DFT Hessian,TD-DFT gradient, ASA and ECA modules, normal mode analysis, Resonance Raman, ABS, FL, XAS/XES, NRVS
   Christoph Reimann      : Effective Core Potentials
   Michael Roemelt        : Restricted open shell CIS
   Christoph Riplinger    : Improved optimizer, TS searches, QM/MM, DLPNO-CCSD
   Barbara Sandhoefer     : DKH picture change effects
   Igor Schapiro          : Molecular dynamics
   Kantharuban Sivalingam : CASSCF convergence, NEVPT2
   Boris Wezisla          : Elementary symmetry handling
   Frank Wennmohs         : Technical directorship


 We gratefully acknowledge several colleagues who have allowed us to
 interface, adapt or use parts of their codes:
   Stefan Grimme, W. Hujo, H. Kruse, T. Risthaus : VdW corrections, initial TS optimization,
                                                   DFT functionals, gCP
   Ed Valeev                                     : LibInt (2-el integral package), F12 methods
   Garnet Chan, S. Sharma, R. Olivares           : DMRG
   Ulf Ekstrom                                   : XCFun DFT Library
   Mihaly Kallay                                 : mrcc  (arbitrary order and MRCC methods)
   Andreas Klamt, Michael Diedenhofen            : otool_cosmo (COSMO solvation model)
   Frank Weinhold                                : gennbo (NPA and NBO analysis)
   Christopher J. Cramer and Donald G. Truhlar   : smd solvation model


 Your calculation uses the libint2 library for the computation of 2-el integrals
 For citations please refer to: http://libint.valeyev.net

 This ORCA versions uses:
   CBLAS   interface :  Fast vector & matrix operations
   LAPACKE interface :  Fast linear algebra routines
   SCALAPACK package :  Parallel linear algebra routines


Your calculation utilizes the basis: Ahlrichs-TZV
Cite in your paper:
H - Kr: A. Schaefer, H. Horn and R. Ahlrichs, J. Chem. Phys. 97, 2571 (1992).

The def2-TZV basis will be loaded
Cite in your paper:
 	F. Weigend, R. Ahlrichs, Phys. Chem. Chem. Phys. 2005, 7, 3297.

================================================================================
                                        WARNINGS
                       Please study these warnings very carefully!
================================================================================
Now building the actual basis set


INFO   : the flag for use of LIBINT has been found!

================================================================================
                                       INPUT FILE
================================================================================
NAME = dsgdb9nsd_093557.inp
|  1> ! RI-MP2 RIJK def2-TZVP def2-TZVP/C def2-TZVP/JK TIGHTSCF
|  2> % maxcore 2000
|  3> % mp2 density relaxed end
|  4> *xyz 0 1
|  5>  O        0.1057826124     1.3541159205     0.3631849115 
|  6>  C        0.0429164554    -0.0360164139     0.0486710621 
|  7>  C       -1.4345888572    -0.4265219667     0.0108730740 
|  8>  O       -2.2913139874     0.3002629606    -0.8699872116 
|  9>  C       -2.0671294970     0.4224789333    -2.2171112415 
| 10>  N       -2.9929402952     0.2126368562    -3.0549118599 
| 11>  C       -0.7369589905     0.9829994836    -2.6697375649 
| 12>  C        0.4473791019     0.0743963009    -2.4205511393 
| 13>  C        0.7945205663    -0.3854186653    -1.2207558089 
| 14>  H        1.0191246690     1.6361331343     0.2498309045 
| 15>  H        0.4676622488    -0.6289160741     0.8759787487 
| 16>  H       -1.5016284221    -1.5007796806    -0.2082744986 
| 17>  H       -1.8662408001    -0.2460287614     0.9989675549 
| 18>  H       -3.8234201541    -0.1287290261    -2.5647919923 
| 19>  H       -0.8370615191     1.2008011109    -3.7324968705 
| 20>  H       -0.5807258832     1.9264366333    -2.1330255312 
| 21>  H        1.0397678107    -0.2004405834    -3.2889974127 
| 22>  H        1.6602351014    -1.0343988820    -1.1198622141 
| 23> *
| 24> 
| 25>                          ****END OF INPUT****
================================================================================

                       ****************************
                       * Single Point Calculation *
                       ****************************

---------------------------------
CARTESIAN COORDINATES (ANGSTROEM)
---------------------------------
  O      0.105783    1.354116    0.363185
  C      0.042916   -0.036016    0.048671
  C     -1.434589   -0.426522    0.010873
  O     -2.291314    0.300263   -0.869987
  C     -2.067129    0.422479   -2.217111
  N     -2.992940    0.212637   -3.054912
  C     -0.736959    0.982999   -2.669738
  C      0.447379    0.074396   -2.420551
  C      0.794521   -0.385419   -1.220756
  H      1.019125    1.636133    0.249831
  H      0.467662   -0.628916    0.875979
  H     -1.501628   -1.500780   -0.208274
  H     -1.866241   -0.246029    0.998968
  H     -3.823420   -0.128729   -2.564792
  H     -0.837062    1.200801   -3.732497
  H     -0.580726    1.926437   -2.133026
  H      1.039768   -0.200441   -3.288997
  H      1.660235   -1.034399   -1.119862

----------------------------
CARTESIAN COORDINATES (A.U.)
----------------------------
  NO LB      ZA    FRAG    MASS        X           Y           Z
   0 O     8.0000    0    15.999          0.199900167166742          2.558908243327682          0.686320018707427
   1 C     6.0000    0    12.011          0.081100347344646         -0.068061158596955          0.091974978016074
   2 C     6.0000    0    12.011         -2.710980054883063         -0.806009707164480          0.020547132093860
   3 O     8.0000    0    15.999         -4.329955923009090          0.567414763694387         -1.644037569937798
   4 C     6.0000    0    12.011         -3.906308632680391          0.798369481288183         -4.189733054873142
   5 N     7.0000    0    14.007         -5.655837493105426          0.401825424195995         -5.772946778479007
   6 C     6.0000    0    12.011         -1.392650663976073          1.857599813790015         -5.045072847102814
   7 C     6.0000    0    12.011          0.845423980630649          0.140588634077799         -4.574178746428070
   8 C     6.0000    0    12.011          1.501426278075022         -0.728335724318458         -2.306894155214507
   9 H     1.0000    0     1.008          1.925866520733145          3.091843542461199          0.472111989294834
  10 H     1.0000    0     1.008          0.883753573405743         -1.188479141269924          1.655359934178027
  11 H     1.0000    0     1.008         -2.837666472681303         -2.836062583687809         -0.393581763033765
  12 H     1.0000    0     1.008         -3.526684012139076         -0.464926980113856          1.887775095433943
  13 H     1.0000    0     1.008         -7.225216986163989         -0.243262604815401         -4.846754455921264
  14 H     1.0000    0     1.008         -1.581817028343093          2.269185240909401         -7.053396880963136
  15 H     1.0000    0     1.008         -1.097412878127540          3.640437651290281         -4.030834090629900
  16 H     1.0000    0     1.008          1.964876405089875         -0.378777808749402         -6.215304365178571
  17 H     1.0000    0     1.008          3.137389659568979         -1.954730600214325         -2.116232892375686

--------------------------------
INTERNAL COORDINATES (ANGSTROEM)
--------------------------------
 O      0   0   0   0.000000     0.000     0.000
 C      1   0   0   1.426653     0.000     0.000
 C      2   1   0   1.528707   107.274     0.000
 O      3   2   1   1.427624   117.724    56.076
 C      4   3   2   1.371109   123.606    55.838
 N      5   4   3   1.266124   121.051   131.977
 C      5   4   3   1.512748   118.085   304.386
 C      7   5   4   1.513377   114.608    69.313
 C      8   7   5   1.330957   124.053   302.214
 H      1   2   3   0.962588   107.537   188.915
 H      2   1   3   1.102895   109.967   246.711
 H      3   2   1   1.098431   108.285   181.245
 H      3   2   1   1.093267   108.487   298.843
 H      6   5   4   1.022959   109.384   354.496
 H      7   5   4   1.089456   106.568   192.053
 H      7   5   4   1.096605   107.314   308.211
 H      8   7   5   1.086581   116.546   122.643
 H      9   8   7   1.086654   119.856   180.060

---------------------------
INTERNAL COORDINATES (A.U.)
---------------------------
 O      0   0   0   0.000000     0.000     0.000
 C      1   0   0   2.695984     0.000     0.000
 C      2   1   0   2.888838   107.274     0.000
 O      3   2   1   2.697818   117.724    56.076
 C      4   3   2   2.591020   123.606    55.838
 N      5   4   3   2.392627   121.051   131.977
 C      5   4   3   2.858680   118.085   304.386
 C      7   5   4   2.859868   114.608    69.313
 C      8   7   5   2.515144   124.053   302.214
 H      1   2   3   1.819029   107.537   188.915
 H      2   1   3   2.084169   109.967   246.711
 H      3   2   1   2.075733   108.285   181.245
 H      3   2   1   2.065975   108.487   298.843
 H      6   5   4   1.933112   109.384   354.496
 H      7   5   4   2.058774   106.568   192.053
 H      7   5   4   2.072283   107.314   308.211
 H      8   7   5   2.053341   116.546   122.643
 H      9   8   7   2.053478   119.856   180.060

---------------------
BASIS SET INFORMATION
---------------------
There are 4 groups of distinct atoms

 Group   1 Type O   : 11s6p2d1f contracted to 5s3p2d1f pattern {62111/411/11/1}
 Group   2 Type C   : 11s6p2d1f contracted to 5s3p2d1f pattern {62111/411/11/1}
 Group   3 Type N   : 11s6p2d1f contracted to 5s3p2d1f pattern {62111/411/11/1}
 Group   4 Type H   : 5s1p contracted to 3s1p pattern {311/1}

Atom   0O    basis set group =>   1
Atom   1C    basis set group =>   2
Atom   2C    basis set group =>   2
Atom   3O    basis set group =>   1
Atom   4C    basis set group =>   2
Atom   5N    basis set group =>   3
Atom   6C    basis set group =>   2
Atom   7C    basis set group =>   2
Atom   8C    basis set group =>   2
Atom   9H    basis set group =>   4
Atom  10H    basis set group =>   4
Atom  11H    basis set group =>   4
Atom  12H    basis set group =>   4
Atom  13H    basis set group =>   4
Atom  14H    basis set group =>   4
Atom  15H    basis set group =>   4
Atom  16H    basis set group =>   4
Atom  17H    basis set group =>   4
-------------------------------
AUXILIARY BASIS SET INFORMATION
-------------------------------
There are 4 groups of distinct atoms

 Group   1 Type O   : 14s10p6d2f1g contracted to 10s8p4d2f1g pattern {5111111111/31111111/3111/11/1}
 Group   2 Type C   : 14s10p6d2f1g contracted to 10s8p5d1f1g pattern {5111111111/31111111/21111/2/1}
 Group   3 Type N   : 14s10p6d2f1g contracted to 10s8p4d2f1g pattern {5111111111/31111111/3111/11/1}
 Group   4 Type H   : 4s2p2d contracted to 2s2p2d pattern {31/11/11}

Atom   0O    basis set group =>   1
Atom   1C    basis set group =>   2
Atom   2C    basis set group =>   2
Atom   3O    basis set group =>   1
Atom   4C    basis set group =>   2
Atom   5N    basis set group =>   3
Atom   6C    basis set group =>   2
Atom   7C    basis set group =>   2
Atom   8C    basis set group =>   2
Atom   9H    basis set group =>   4
Atom  10H    basis set group =>   4
Atom  11H    basis set group =>   4
Atom  12H    basis set group =>   4
Atom  13H    basis set group =>   4
Atom  14H    basis set group =>   4
Atom  15H    basis set group =>   4
Atom  16H    basis set group =>   4
Atom  17H    basis set group =>   4
------------------------------------------------------------------------------
                           ORCA GTO INTEGRAL CALCULATION
                           -- RI-GTO INTEGRALS CHOSEN --
------------------------------------------------------------------------------

                         BASIS SET STATISTICS AND STARTUP INFO

Gaussian basis set:
 # of primitive gaussian shells          ...  234
 # of primitive gaussian functions       ...  486
 # of contracted shells                  ...  135
 # of contracted basis functions         ...  333
 Highest angular momentum                ...    3
 Maximum contraction depth               ...    6
Auxiliary gaussian basis set:
 # of primitive gaussian shells          ...  369
 # of primitive gaussian functions       ... 1053
 # of contracted shells                  ...  279
 # of contracted aux-basis functions     ...  843
 Highest angular momentum                ...    4
 Maximum contraction depth               ...    5
Ratio of auxiliary to basis functions    ...  2.53
Integral package used                  ... LIBINT
 One Electron integrals                  ... done
 Ordering auxiliary basis shells         ... done
 Integral threshhold             Thresh  ...  2.500e-11
 Primitive cut-off               TCut    ...  2.500e-12
 Pre-screening matrix                    ... done
 Shell pair data                         ... 
 Ordering of the shell pairs             ... done (   0.002 sec) 8511 of 9180 pairs
 Determination of significant pairs      ... done (   0.000 sec)
 Creation of shell pair data             ... done (   0.002 sec)
 Storage of shell pair data              ... done (   0.002 sec)
 Shell pair data done in (   0.005 sec)
 Computing two index integrals           ... done
 Cholesky decomposition of the V-matrix  ... done


Timings:
 Total evaluation time                   ...   0.393 sec (  0.007 min)
 One electron matrix time                ...   0.088 sec (  0.001 min) = 22.4%
 Schwartz matrix evaluation time         ...   0.216 sec (  0.004 min) = 54.9%
 Two index repulsion integral time       ...   0.023 sec (  0.000 min) =  5.8%
 Cholesky decomposition of V             ...   0.033 sec (  0.001 min) =  8.4%
 Three index repulsion integral time     ...   0.000 sec (  0.000 min) =  0.0%

-------------------------------------------------------------------------------
                                 ORCA SCF
-------------------------------------------------------------------------------

------------
SCF SETTINGS
------------
Hamiltonian:
 Ab initio Hamiltonian  Method          .... Hartree-Fock(GTOs)
 RI-approximation to the Coulomb term is turned on
   Number of auxiliary basis functions  .... 843
   RI-JK (J+K treated both via RI)      .... on


General Settings:
 Integral files         IntName         .... dsgdb9nsd_093557
 Hartree-Fock type      HFTyp           .... RHF
 Total Charge           Charge          ....    0
 Multiplicity           Mult            ....    1
 Number of Electrons    NEL             ....   68
 Basis Dimension        Dim             ....  333
 Nuclear Repulsion      ENuc            ....    465.1994248426 Eh

Convergence Acceleration:
 DIIS                   CNVDIIS         .... on
   Start iteration      DIISMaxIt       ....    12
   Startup error        DIISStart       ....  0.200000
   # of expansion vecs  DIISMaxEq       ....     5
   Bias factor          DIISBfac        ....   1.050
   Max. coefficient     DIISMaxC        ....  10.000
 Newton-Raphson         CNVNR           .... off
 SOSCF                  CNVSOSCF        .... on
   Start iteration      SOSCFMaxIt      ....   150
   Startup grad/error   SOSCFStart      ....  0.003300
 Level Shifting         CNVShift        .... on
   Level shift para.    LevelShift      ....    0.2500
   Turn off err/grad.   ShiftErr        ....    0.0010
 Zerner damping         CNVZerner       .... off
 Static damping         CNVDamp         .... on
   Fraction old density DampFac         ....    0.7000
   Max. Damping (<1)    DampMax         ....    0.9800
   Min. Damping (>=0)   DampMin         ....    0.0000
   Turn off err/grad.   DampErr         ....    0.1000
 Fernandez-Rico         CNVRico         .... off

SCF Procedure:
 Maximum # iterations   MaxIter         ....   125
 SCF integral mode      SCFMode         .... Direct
   Integral package                     .... LIBINT
 Reset frequeny         DirectResetFreq ....    20
 Integral Threshold     Thresh          ....  2.500e-11 Eh
 Primitive CutOff       TCut            ....  2.500e-12 Eh

Convergence Tolerance:
 Convergence Check Mode ConvCheckMode   .... Total+1el-Energy
 Energy Change          TolE            ....  1.000e-08 Eh
 1-El. energy change                    ....  1.000e-05 Eh
 Orbital Gradient       TolG            ....  1.000e-05
 Orbital Rotation angle TolX            ....  1.000e-05
 DIIS Error             TolErr          ....  5.000e-07


Diagonalization of the overlap matrix:
Smallest eigenvalue                        ... 4.630e-05
Time for diagonalization                   ...    0.032 sec
Threshold for overlap eigenvalues          ... 1.000e-08
Number of eigenvalues below threshold      ... 0
Time for construction of square roots      ...    0.017 sec
Total time needed                          ...    0.049 sec

-------------------
DFT GRID GENERATION
-------------------

General Integration Accuracy     IntAcc      ...  4.340
Radial Grid Type                 RadialGrid  ... Gauss-Chebyshev
Angular Grid (max. acc.)         AngularGrid ... Lebedev-110
Angular grid pruning method      GridPruning ... 3 (G Style)
Weight generation scheme         WeightScheme... Becke
Basis function cutoff            BFCut       ...    1.0000e-11
Integration weight cutoff        WCut        ...    1.0000e-14
Grids for H and He will be reduced by one unit

# of grid points (after initial pruning)     ...  22216 (   0.0 sec)
# of grid points (after weights+screening)   ...  20434 (   0.1 sec)
nearest neighbour list constructed           ...    0.0 sec
Grid point re-assignment to atoms done       ...    0.0 sec
Grid point division into batches done        ...    0.0 sec
Reduced shell lists constructed in    1.2 sec

Total number of grid points                  ...    20434
Total number of batches                      ...      328
Average number of points per batch           ...       62
Average number of grid points per atom       ...     1135
Average number of shells per batch           ...    92.18 (68.28%)
Average number of basis functions per batch  ...   233.61 (70.15%)
Average number of large shells per batch     ...    71.92 (78.02%)
Average number of large basis fcns per batch ...   178.65 (76.47%)
Average number of aux-shells per batch       ...    92.18 (33.04%)
Average number of aux functions per batch    ...   233.61 (  inf%)
Maximum spatial batch extension              ...  18.47, 20.05, 18.60 au
Average spatial batch extension              ...   3.60,  3.82,  3.67 au

Time for grid setup =    1.346 sec

------------------------------
INITIAL GUESS: MODEL POTENTIAL
------------------------------
Loading Hartree-Fock densities                     ... done
Calculating cut-offs                               ... done
Setting up the integral package                    ... done
Initializing the effective Hamiltonian             ... done
Starting the Coulomb interaction                   ... done (   0.7 sec)
Reading the grid                                   ... done
Mapping shells                                     ... done
Starting the XC term evaluation                    ... done (   0.7 sec)
Transforming the Hamiltonian                       ... done (   0.0 sec)
Diagonalizing the Hamiltonian                      ... done (   0.0 sec)
Back transforming the eigenvectors                 ... done (   0.0 sec)
Now organizing SCF variables                       ... done
                      ------------------
                      INITIAL GUESS DONE (   2.9 sec)
                      ------------------
--------------
SCF ITERATIONS
--------------
ITER       Energy         Delta-E        Max-DP      RMS-DP      [F,P]     Damp
  0   -436.3283225646   0.000000000000 0.04290126  0.00092482  0.3003826 0.7000
  1   -436.1596784705   0.168644094139 0.04335099  0.00103316  0.2948216 0.7000
                               ***Turning on DIIS***
  2   -436.2051683916  -0.045489921098 0.03068707  0.00075886  0.1860339 0.7000
  3   -437.2696641822  -1.064495790557 0.01447100  0.00038709  0.1316877 0.7000
  4   -436.6329668028   0.636697379365 0.03454432  0.00089765  0.0858007 0.0000
  5   -436.7044226481  -0.071455845276 0.01403655  0.00024869  0.0232479 0.0000
  6   -436.6392112711   0.065211377011 0.00562005  0.00012629  0.0159522 0.0000
  7   -436.6663088809  -0.027097609858 0.00267962  0.00006480  0.0110861 0.0000
  8   -436.6669088463  -0.000599965380 0.00276828  0.00005247  0.0068037 0.0000
                      *** Initiating the SOSCF procedure ***
                           *** Shutting down DIIS ***
                      *** Re-Reading the Fockian *** 
                      *** Removing any level shift *** 
ITER      Energy       Delta-E        Grad      Rot      Max-DP    RMS-DP
  9   -436.73228317  -0.0653743270  0.000735  0.000735  0.000573  0.000012
 10   -436.73911196  -0.0068287857  0.000319  0.000548  0.000486  0.000010
 11   -436.73911430  -0.0000023363  0.000156  0.000647  0.000501  0.000011
 12   -436.73911523  -0.0000009366  0.000024  0.000027  0.000087  0.000002
 13   -436.73911529  -0.0000000610  0.000007  0.000013  0.000040  0.000001
                  ***Gradient check signals convergence***
              ***Rediagonalizing the Fockian in SOSCF/NRSCF***

               *****************************************************
               *                     SUCCESS                       *
               *           SCF CONVERGED AFTER  14 CYCLES          *
               *****************************************************


----------------
TOTAL SCF ENERGY
----------------

Total Energy       :         -436.73911530 Eh          -11884.27551 eV

Components:
Nuclear Repulsion  :          465.19942484 Eh           12658.71991 eV
Electronic Energy  :         -901.93854014 Eh          -24542.99542 eV

One Electron Energy:        -1518.53262469 Eh          -41321.37346 eV
Two Electron Energy:          616.59408455 Eh           16778.37804 eV

Virial components:
Potential Energy   :         -872.90397552 Eh          -23752.92475 eV
Kinetic Energy     :          436.16486022 Eh           11868.64924 eV
Virial Ratio       :            2.00131660


---------------
SCF CONVERGENCE
---------------

  Last Energy change         ...   -5.5242e-09  Tolerance :   1.0000e-08
  Last MAX-Density change    ...    9.3130e-06  Tolerance :   1.0000e-07
  Last RMS-Density change    ...    2.4859e-07  Tolerance :   5.0000e-09
  Last Orbital Gradient      ...    2.1134e-06  Tolerance :   1.0000e-05
  Last Orbital Rotation      ...    3.3955e-06  Tolerance :   1.0000e-05

             **** THE GBW FILE WAS UPDATED (dsgdb9nsd_093557.gbw) ****
             **** DENSITY FILE WAS UPDATED (dsgdb9nsd_093557.scfp.tmp) ****
             **** ENERGY FILE WAS UPDATED (dsgdb9nsd_093557.en.tmp) ****
----------------
ORBITAL ENERGIES
----------------

  NO   OCC          E(Eh)            E(eV) 
   0   2.0000     -20.580501      -560.0239 
   1   2.0000     -20.569163      -559.7154 
   2   2.0000     -15.531520      -422.6341 
   3   2.0000     -11.333603      -308.4030 
   4   2.0000     -11.303034      -307.5712 
   5   2.0000     -11.296652      -307.3975 
   6   2.0000     -11.253479      -306.2227 
   7   2.0000     -11.241359      -305.8929 
   8   2.0000     -11.240385      -305.8664 
   9   2.0000      -1.413869       -38.4733 
  10   2.0000      -1.373608       -37.3778 
  11   2.0000      -1.194222       -32.4964 
  12   2.0000      -1.104090       -30.0438 
  13   2.0000      -1.031309       -28.0633 
  14   2.0000      -0.959164       -26.1002 
  15   2.0000      -0.888380       -24.1740 
  16   2.0000      -0.769250       -20.9324 
  17   2.0000      -0.749224       -20.3874 
  18   2.0000      -0.718709       -19.5571 
  19   2.0000      -0.706705       -19.2304 
  20   2.0000      -0.670050       -18.2330 
  21   2.0000      -0.637337       -17.3428 
  22   2.0000      -0.632148       -17.2016 
  23   2.0000      -0.606497       -16.5036 
  24   2.0000      -0.582219       -15.8430 
  25   2.0000      -0.567862       -15.4523 
  26   2.0000      -0.553310       -15.0563 
  27   2.0000      -0.531574       -14.4649 
  28   2.0000      -0.494069       -13.4443 
  29   2.0000      -0.471837       -12.8393 
  30   2.0000      -0.459854       -12.5133 
  31   2.0000      -0.433362       -11.7924 
  32   2.0000      -0.400905       -10.9092 
  33   2.0000      -0.372795       -10.1443 
  34   0.0000       0.111517         3.0345 
  35   0.0000       0.129324         3.5191 
  36   0.0000       0.159483         4.3397 
  37   0.0000       0.163414         4.4467 
  38   0.0000       0.173961         4.7337 
  39   0.0000       0.182561         4.9677 
  40   0.0000       0.199668         5.4332 
  41   0.0000       0.205644         5.5959 
  42   0.0000       0.208449         5.6722 
  43   0.0000       0.220706         6.0057 
  44   0.0000       0.232357         6.3228 
  45   0.0000       0.256083         6.9684 
  46   0.0000       0.275358         7.4929 
  47   0.0000       0.305445         8.3116 
  48   0.0000       0.309523         8.4226 
  49   0.0000       0.315961         8.5977 
  50   0.0000       0.325772         8.8647 
  51   0.0000       0.347444         9.4544 
  52   0.0000       0.356007         9.6875 
  53   0.0000       0.363087         9.8801 
  54   0.0000       0.393688        10.7128 
  55   0.0000       0.399497        10.8709 
  56   0.0000       0.423554        11.5255 
  57   0.0000       0.433437        11.7944 
  58   0.0000       0.445784        12.1304 
  59   0.0000       0.456352        12.4180 
  60   0.0000       0.473589        12.8870 
  61   0.0000       0.474588        12.9142 
  62   0.0000       0.493014        13.4156 
  63   0.0000       0.499690        13.5972 
  64   0.0000       0.517557        14.0835 
  65   0.0000       0.524219        14.2647 
  66   0.0000       0.527531        14.3548 
  67   0.0000       0.544464        14.8156 
  68   0.0000       0.546539        14.8721 
  69   0.0000       0.564483        15.3604 
  70   0.0000       0.569707        15.5025 
  71   0.0000       0.575890        15.6708 
  72   0.0000       0.592214        16.1150 
  73   0.0000       0.599622        16.3165 
  74   0.0000       0.606665        16.5082 
  75   0.0000       0.617962        16.8156 
  76   0.0000       0.628805        17.1107 
  77   0.0000       0.636580        17.3222 
  78   0.0000       0.653594        17.7852 
  79   0.0000       0.674565        18.3559 
  80   0.0000       0.682037        18.5592 
  81   0.0000       0.698411        19.0047 
  82   0.0000       0.708611        19.2823 
  83   0.0000       0.719127        19.5684 
  84   0.0000       0.748662        20.3721 
  85   0.0000       0.756705        20.5910 
  86   0.0000       0.758150        20.6303 
  87   0.0000       0.783086        21.3089 
  88   0.0000       0.798250        21.7215 
  89   0.0000       0.806606        21.9489 
  90   0.0000       0.832145        22.6438 
  91   0.0000       0.855560        23.2810 
  92   0.0000       0.875361        23.8198 
  93   0.0000       0.881897        23.9976 
  94   0.0000       0.900866        24.5138 
  95   0.0000       0.915340        24.9077 
  96   0.0000       0.946992        25.7690 
  97   0.0000       0.962749        26.1977 
  98   0.0000       0.997976        27.1563 
  99   0.0000       1.025774        27.9127 
 100   0.0000       1.037203        28.2237 
 101   0.0000       1.039708        28.2919 
 102   0.0000       1.070229        29.1224 
 103   0.0000       1.095164        29.8009 
 104   0.0000       1.114330        30.3225 
 105   0.0000       1.128274        30.7019 
 106   0.0000       1.162078        31.6218 
 107   0.0000       1.167534        31.7702 
 108   0.0000       1.195283        32.5253 
 109   0.0000       1.207266        32.8514 
 110   0.0000       1.220611        33.2145 
 111   0.0000       1.280107        34.8335 
 112   0.0000       1.285368        34.9766 
 113   0.0000       1.304544        35.4984 
 114   0.0000       1.308942        35.6181 
 115   0.0000       1.323081        36.0029 
 116   0.0000       1.353137        36.8207 
 117   0.0000       1.370101        37.2823 
 118   0.0000       1.399686        38.0874 
 119   0.0000       1.407729        38.3063 
 120   0.0000       1.416942        38.5569 
 121   0.0000       1.449833        39.4520 
 122   0.0000       1.481558        40.3152 
 123   0.0000       1.493827        40.6491 
 124   0.0000       1.525905        41.5220 
 125   0.0000       1.537206        41.8295 
 126   0.0000       1.555537        42.3283 
 127   0.0000       1.579365        42.9767 
 128   0.0000       1.618550        44.0430 
 129   0.0000       1.653755        45.0010 
 130   0.0000       1.662589        45.2414 
 131   0.0000       1.686286        45.8862 
 132   0.0000       1.710332        46.5405 
 133   0.0000       1.716607        46.7112 
 134   0.0000       1.746895        47.5354 
 135   0.0000       1.767631        48.0997 
 136   0.0000       1.778574        48.3975 
 137   0.0000       1.819704        49.5167 
 138   0.0000       1.838044        50.0157 
 139   0.0000       1.852189        50.4006 
 140   0.0000       1.863281        50.7024 
 141   0.0000       1.874485        51.0073 
 142   0.0000       1.900044        51.7028 
 143   0.0000       1.907411        51.9033 
 144   0.0000       1.936399        52.6921 
 145   0.0000       1.958497        53.2934 
 146   0.0000       1.967075        53.5268 
 147   0.0000       1.987136        54.0727 
 148   0.0000       2.010489        54.7082 
 149   0.0000       2.035576        55.3908 
 150   0.0000       2.036952        55.4283 
 151   0.0000       2.049640        55.7735 
 152   0.0000       2.083412        56.6925 
 153   0.0000       2.105655        57.2978 
 154   0.0000       2.138013        58.1783 
 155   0.0000       2.158618        58.7390 
 156   0.0000       2.174364        59.1674 
 157   0.0000       2.201930        59.9176 
 158   0.0000       2.229434        60.6660 
 159   0.0000       2.235787        60.8388 
 160   0.0000       2.252877        61.3039 
 161   0.0000       2.261251        61.5318 
 162   0.0000       2.294041        62.4240 
 163   0.0000       2.300996        62.6133 
 164   0.0000       2.324691        63.2581 
 165   0.0000       2.345553        63.8257 
 166   0.0000       2.354281        64.0632 
 167   0.0000       2.380214        64.7689 
 168   0.0000       2.392148        65.0936 
 169   0.0000       2.398614        65.2696 
 170   0.0000       2.432841        66.2010 
 171   0.0000       2.442396        66.4610 
 172   0.0000       2.501822        68.0781 
 173   0.0000       2.506123        68.1951 
 174   0.0000       2.527626        68.7802 
 175   0.0000       2.555444        69.5372 
 176   0.0000       2.571717        69.9800 
 177   0.0000       2.597593        70.6841 
 178   0.0000       2.602559        70.8192 
 179   0.0000       2.649858        72.1063 
 180   0.0000       2.673933        72.7614 
 181   0.0000       2.686731        73.1097 
 182   0.0000       2.710841        73.7657 
 183   0.0000       2.748633        74.7941 
 184   0.0000       2.754589        74.9562 
 185   0.0000       2.806330        76.3641 
 186   0.0000       2.829808        77.0030 
 187   0.0000       2.840401        77.2912 
 188   0.0000       2.856245        77.7224 
 189   0.0000       2.865524        77.9749 
 190   0.0000       2.893168        78.7271 
 191   0.0000       2.913320        79.2755 
 192   0.0000       2.915974        79.3477 
 193   0.0000       2.936416        79.9040 
 194   0.0000       2.949042        80.2475 
 195   0.0000       2.954470        80.3952 
 196   0.0000       2.993656        81.4615 
 197   0.0000       3.003547        81.7307 
 198   0.0000       3.021376        82.2158 
 199   0.0000       3.043905        82.8289 
 200   0.0000       3.066758        83.4507 
 201   0.0000       3.095349        84.2287 
 202   0.0000       3.099701        84.3471 
 203   0.0000       3.135274        85.3151 
 204   0.0000       3.148281        85.6691 
 205   0.0000       3.154198        85.8301 
 206   0.0000       3.177818        86.4728 
 207   0.0000       3.203208        87.1637 
 208   0.0000       3.220883        87.6447 
 209   0.0000       3.253466        88.5313 
 210   0.0000       3.262274        88.7710 
 211   0.0000       3.266942        88.8980 
 212   0.0000       3.272867        89.0592 
 213   0.0000       3.305835        89.9563 
 214   0.0000       3.332825        90.6908 
 215   0.0000       3.348594        91.1199 
 216   0.0000       3.372042        91.7579 
 217   0.0000       3.392735        92.3210 
 218   0.0000       3.405546        92.6696 
 219   0.0000       3.425922        93.2241 
 220   0.0000       3.436997        93.5255 
 221   0.0000       3.467781        94.3631 
 222   0.0000       3.485787        94.8531 
 223   0.0000       3.517016        95.7029 
 224   0.0000       3.542172        96.3874 
 225   0.0000       3.546438        96.5035 
 226   0.0000       3.560785        96.8939 
 227   0.0000       3.563665        96.9723 
 228   0.0000       3.589810        97.6837 
 229   0.0000       3.613747        98.3351 
 230   0.0000       3.618771        98.4718 
 231   0.0000       3.620006        98.5054 
 232   0.0000       3.633812        98.8810 
 233   0.0000       3.659135        99.5701 
 234   0.0000       3.681554       100.1802 
 235   0.0000       3.696893       100.5976 
 236   0.0000       3.709196       100.9324 
 237   0.0000       3.714806       101.0850 
 238   0.0000       3.734873       101.6311 
 239   0.0000       3.751467       102.0826 
 240   0.0000       3.786866       103.0459 
 241   0.0000       3.816494       103.8521 
 242   0.0000       3.823301       104.0373 
 243   0.0000       3.845401       104.6387 
 244   0.0000       3.877178       105.5034 
 245   0.0000       3.895250       105.9951 
 246   0.0000       3.918521       106.6284 
 247   0.0000       3.946294       107.3841 
 248   0.0000       3.960659       107.7750 
 249   0.0000       3.984883       108.4342 
 250   0.0000       4.003109       108.9301 
 251   0.0000       4.026965       109.5793 
 252   0.0000       4.066639       110.6589 
 253   0.0000       4.073206       110.8376 
 254   0.0000       4.088964       111.2664 
 255   0.0000       4.149746       112.9203 
 256   0.0000       4.194982       114.1513 
 257   0.0000       4.215524       114.7103 
 258   0.0000       4.241565       115.4189 
 259   0.0000       4.279635       116.4548 
 260   0.0000       4.301826       117.0586 
 261   0.0000       4.321716       117.5999 
 262   0.0000       4.341261       118.1317 
 263   0.0000       4.367642       118.8496 
 264   0.0000       4.385143       119.3258 
 265   0.0000       4.418261       120.2270 
 266   0.0000       4.432016       120.6013 
 267   0.0000       4.440476       120.8315 
 268   0.0000       4.488877       122.1486 
 269   0.0000       4.564660       124.2107 
 270   0.0000       4.612869       125.5225 
 271   0.0000       4.675744       127.2335 
 272   0.0000       4.707895       128.1083 
 273   0.0000       4.719573       128.4261 
 274   0.0000       4.737666       128.9185 
 275   0.0000       4.773292       129.8879 
 276   0.0000       4.804696       130.7424 
 277   0.0000       4.872384       132.5843 
 278   0.0000       4.916137       133.7749 
 279   0.0000       4.972487       135.3082 
 280   0.0000       4.979600       135.5018 
 281   0.0000       5.043127       137.2305 
 282   0.0000       5.103018       138.8602 
 283   0.0000       5.106366       138.9513 
 284   0.0000       5.134881       139.7272 
 285   0.0000       5.157267       140.3364 
 286   0.0000       5.182671       141.0277 
 287   0.0000       5.222557       142.1130 
 288   0.0000       5.244337       142.7057 
 289   0.0000       5.311175       144.5244 
 290   0.0000       5.379581       146.3858 
 291   0.0000       5.465514       148.7242 
 292   0.0000       5.474988       148.9820 
 293   0.0000       5.567370       151.4958 
 294   0.0000       5.616779       152.8403 
 295   0.0000       5.666658       154.1976 
 296   0.0000       5.684618       154.6863 
 297   0.0000       5.722688       155.7223 
 298   0.0000       5.739149       156.1702 
 299   0.0000       5.774102       157.1213 
 300   0.0000       5.837925       158.8580 
 301   0.0000       5.893866       160.3803 
 302   0.0000       5.929029       161.3371 
 303   0.0000       5.977023       162.6431 
 304   0.0000       6.156850       167.5364 
 305   0.0000       6.211629       169.0270 
 306   0.0000       6.243735       169.9007 
 307   0.0000       6.347344       172.7200 
 308   0.0000       6.389908       173.8782 
 309   0.0000       6.419930       174.6952 
 310   0.0000       6.566243       178.6766 
 311   0.0000       6.742363       183.4690 
 312   0.0000       6.794827       184.8966 
 313   0.0000       6.972987       189.7446 
 314   0.0000       6.987250       190.1327 
 315   0.0000       7.217674       196.4029 
 316   0.0000       7.253967       197.3905 
 317   0.0000       7.279856       198.0949 
 318   0.0000       7.297143       198.5654 
 319   0.0000       7.506390       204.2592 
 320   0.0000       7.512051       204.4133 
 321   0.0000       7.690278       209.2631 
 322   0.0000       7.708280       209.7530 
 323   0.0000       7.838705       213.3020 
 324   0.0000      23.285713       633.6365 
 325   0.0000      23.528453       640.2418 
 326   0.0000      23.596552       642.0948 
 327   0.0000      23.702839       644.9870 
 328   0.0000      24.001340       653.1097 
 329   0.0000      24.213749       658.8896 
 330   0.0000      33.376156       908.2114 
 331   0.0000      45.624878      1241.5161 
 332   0.0000      45.784123      1245.8493 

                    ********************************
                    * MULLIKEN POPULATION ANALYSIS *
                    ********************************

-----------------------
MULLIKEN ATOMIC CHARGES
-----------------------
   0 O :   -0.545183
   1 C :    0.315911
   2 C :    0.025185
   3 O :   -0.387662
   4 C :    0.223598
   5 N :   -0.462268
   6 C :   -0.002260
   7 C :   -0.155054
   8 C :   -0.357402
   9 H :    0.325831
  10 H :    0.079077
  11 H :    0.087560
  12 H :    0.111842
  13 H :    0.221642
  14 H :    0.134782
  15 H :    0.117020
  16 H :    0.136095
  17 H :    0.131286
Sum of atomic charges:   -0.0000000

--------------------------------
MULLIKEN REDUCED ORBITAL CHARGES
--------------------------------
  0 O s       :     3.804804  s :     3.804804
      pz      :     1.892796  p :     4.705869
      px      :     1.445605
      py      :     1.367467
      dz2     :     0.004685  d :     0.032719
      dxz     :     0.001810
      dyz     :     0.004916
      dx2y2   :     0.016560
      dxy     :     0.004750
      f0      :     0.000230  f :     0.001790
      f+1     :     0.000329
      f-1     :     0.000312
      f+2     :     0.000195
      f-2     :     0.000061
      f+3     :     0.000256
      f-3     :     0.000408
  1 C s       :     3.001039  s :     3.001039
      pz      :     0.880461  p :     2.489725
      px      :     0.936865
      py      :     0.672399
      dz2     :     0.024401  d :     0.180092
      dxz     :     0.028955
      dyz     :     0.049955
      dx2y2   :     0.036959
      dxy     :     0.039822
      f0      :     0.001562  f :     0.013233
      f+1     :     0.001452
      f-1     :     0.002261
      f+2     :     0.002364
      f-2     :     0.000824
      f+3     :     0.002762
      f-3     :     0.002009
  2 C s       :     3.172750  s :     3.172750
      pz      :     0.894792  p :     2.646846
      px      :     0.850418
      py      :     0.901636
      dz2     :     0.033523  d :     0.144001
      dxz     :     0.033673
      dyz     :     0.015100
      dx2y2   :     0.044716
      dxy     :     0.016989
      f0      :     0.001129  f :     0.011219
      f+1     :     0.001956
      f-1     :     0.001203
      f+2     :     0.002269
      f-2     :     0.001322
      f+3     :     0.001570
      f-3     :     0.001771
  3 O s       :     3.762613  s :     3.762613
      pz      :     1.243300  p :     4.583497
      px      :     1.642555
      py      :     1.697641
      dz2     :     0.013387  d :     0.039309
      dxz     :     0.011105
      dyz     :     0.005898
      dx2y2   :     0.003282
      dxy     :     0.005637
      f0      :     0.000689  f :     0.002243
      f+1     :     0.000419
      f-1     :     0.000429
      f+2     :     0.000136
      f-2     :     0.000319
      f+3     :     0.000110
      f-3     :     0.000141
  4 C s       :     3.115160  s :     3.115160
      pz      :     0.697706  p :     2.404040
      px      :     0.908102
      py      :     0.798233
      dz2     :     0.063595  d :     0.236155
      dxz     :     0.064058
      dyz     :     0.056480
      dx2y2   :     0.022645
      dxy     :     0.029377
      f0      :     0.003802  f :     0.021047
      f+1     :     0.006202
      f-1     :     0.003653
      f+2     :     0.001699
      f-2     :     0.002438
      f+3     :     0.001590
      f-3     :     0.001663
  5 N s       :     3.606249  s :     3.606249
      pz      :     1.514221  p :     3.797493
      px      :     1.075857
      py      :     1.207415
      dz2     :     0.008919  d :     0.055221
      dxz     :     0.020502
      dyz     :     0.013362
      dx2y2   :     0.005112
      dxy     :     0.007327
      f0      :     0.000395  f :     0.003305
      f+1     :     0.000424
      f-1     :     0.000114
      f+2     :     0.000657
      f-2     :     0.000706
      f+3     :     0.000432
      f-3     :     0.000577
  6 C s       :     3.017110  s :     3.017110
      pz      :     1.047721  p :     2.884303
      px      :     0.868508
      py      :     0.968074
      dz2     :     0.019480  d :     0.094617
      dxz     :     0.013367
      dyz     :     0.014104
      dx2y2   :     0.024488
      dxy     :     0.023178
      f0      :     0.001390  f :     0.006231
      f+1     :     0.000644
      f-1     :     0.000411
      f+2     :     0.000569
      f-2     :     0.000759
      f+3     :     0.001001
      f-3     :     0.001458
  7 C s       :     3.166071  s :     3.166071
      pz      :     0.989284  p :     2.871360
      px      :     0.965988
      py      :     0.916088
      dz2     :     0.028707  d :     0.109435
      dxz     :     0.030727
      dyz     :     0.020949
      dx2y2   :     0.015852
      dxy     :     0.013200
      f0      :     0.001382  f :     0.008187
      f+1     :     0.001787
      f-1     :     0.001313
      f+2     :     0.000703
      f-2     :     0.001065
      f+3     :     0.000917
      f-3     :     0.001019
  8 C s       :     3.237440  s :     3.237440
      pz      :     0.948181  p :     3.015218
      px      :     1.015521
      py      :     1.051516
      dz2     :     0.027514  d :     0.096653
      dxz     :     0.030680
      dyz     :     0.022979
      dx2y2   :     0.005882
      dxy     :     0.009598
      f0      :     0.001795  f :     0.008091
      f+1     :     0.001780
      f-1     :     0.001330
      f+2     :     0.001077
      f-2     :     0.000973
      f+3     :     0.000350
      f-3     :     0.000786
  9 H s       :     0.628110  s :     0.628110
      pz      :     0.015044  p :     0.046059
      px      :     0.019471
      py      :     0.011544
 10 H s       :     0.899689  s :     0.899689
      pz      :     0.010368  p :     0.021234
      px      :     0.005140
      py      :     0.005726
 11 H s       :     0.891263  s :     0.891263
      pz      :     0.002984  p :     0.021177
      px      :     0.003106
      py      :     0.015087
 12 H s       :     0.866265  s :     0.866265
      pz      :     0.013484  p :     0.021893
      px      :     0.005077
      py      :     0.003332
 13 H s       :     0.743602  s :     0.743602
      pz      :     0.010328  p :     0.034756
      px      :     0.015522
      py      :     0.008906
 14 H s       :     0.842628  s :     0.842628
      pz      :     0.014887  p :     0.022590
      px      :     0.003443
      py      :     0.004260
 15 H s       :     0.860157  s :     0.860157
      pz      :     0.006400  p :     0.022823
      px      :     0.003854
      py      :     0.012569
 16 H s       :     0.840476  s :     0.840476
      pz      :     0.011197  p :     0.023429
      px      :     0.007549
      py      :     0.004683
 17 H s       :     0.845140  s :     0.845140
      pz      :     0.003204  p :     0.023574
      px      :     0.011757
      py      :     0.008613


                     *******************************
                     * LOEWDIN POPULATION ANALYSIS *
                     *******************************

----------------------
LOEWDIN ATOMIC CHARGES
----------------------
   0 O :   -0.042893
   1 C :   -0.309608
   2 C :   -0.229807
   3 O :    0.181891
   4 C :   -0.347596
   5 N :   -0.081944
   6 C :   -0.178906
   7 C :   -0.131230
   8 C :   -0.171486
   9 H :    0.176680
  10 H :    0.137289
  11 H :    0.123914
  12 H :    0.131225
  13 H :    0.162305
  14 H :    0.148953
  15 H :    0.153609
  16 H :    0.140830
  17 H :    0.136774

-------------------------------
LOEWDIN REDUCED ORBITAL CHARGES
-------------------------------
  0 O s       :     3.360820  s :     3.360820
      pz      :     1.775006  p :     4.610758
      px      :     1.432852
      py      :     1.402900
      dz2     :     0.008772  d :     0.067136
      dxz     :     0.001554
      dyz     :     0.012716
      dx2y2   :     0.027084
      dxy     :     0.017010
      f0      :     0.000322  f :     0.004178
      f+1     :     0.000386
      f-1     :     0.000585
      f+2     :     0.000629
      f-2     :     0.000150
      f+3     :     0.001233
      f-3     :     0.000874
  1 C s       :     2.743546  s :     2.743546
      pz      :     0.990369  p :     2.826399
      px      :     1.025816
      py      :     0.810213
      dz2     :     0.098065  d :     0.653924
      dxz     :     0.102564
      dyz     :     0.168167
      dx2y2   :     0.162156
      dxy     :     0.122972
      f0      :     0.010540  f :     0.085740
      f+1     :     0.006249
      f-1     :     0.014342
      f+2     :     0.014536
      f-2     :     0.007997
      f+3     :     0.016614
      f-3     :     0.015462
  2 C s       :     2.792283  s :     2.792283
      pz      :     0.921021  p :     2.843700
      px      :     0.958584
      py      :     0.964095
      dz2     :     0.109640  d :     0.524857
      dxz     :     0.126698
      dyz     :     0.050360
      dx2y2   :     0.157508
      dxy     :     0.080651
      f0      :     0.007181  f :     0.068967
      f+1     :     0.010666
      f-1     :     0.006661
      f+2     :     0.013522
      f-2     :     0.012603
      f+3     :     0.008492
      f-3     :     0.009842
  3 O s       :     3.248325  s :     3.248325
      pz      :     1.303292  p :     4.463719
      px      :     1.564012
      py      :     1.596415
      dz2     :     0.036405  d :     0.100314
      dxz     :     0.026926
      dyz     :     0.019046
      dx2y2   :     0.008209
      dxy     :     0.009727
      f0      :     0.001381  f :     0.005751
      f+1     :     0.001489
      f-1     :     0.001111
      f+2     :     0.000509
      f-2     :     0.000614
      f+3     :     0.000360
      f-3     :     0.000288
  4 C s       :     2.746025  s :     2.746025
      pz      :     0.881995  p :     2.657055
      px      :     1.004901
      py      :     0.770160
      dz2     :     0.254256  d :     0.822147
      dxz     :     0.227155
      dyz     :     0.154312
      dx2y2   :     0.088972
      dxy     :     0.097452
      f0      :     0.023727  f :     0.122368
      f+1     :     0.041578
      f-1     :     0.017904
      f+2     :     0.011338
      f-2     :     0.014187
      f+3     :     0.006721
      f-3     :     0.006914
  5 N s       :     3.162196  s :     3.162196
      pz      :     1.495619  p :     3.776656
      px      :     1.140384
      py      :     1.140654
      dz2     :     0.024797  d :     0.130656
      dxz     :     0.051313
      dyz     :     0.015534
      dx2y2   :     0.020278
      dxy     :     0.018734
      f0      :     0.002134  f :     0.012435
      f+1     :     0.003300
      f-1     :     0.000378
      f+2     :     0.002515
      f-2     :     0.002166
      f+3     :     0.000783
      f-3     :     0.001161
  6 C s       :     2.761068  s :     2.761068
      pz      :     1.015558  p :     3.015231
      px      :     0.988480
      py      :     1.011193
      dz2     :     0.077990  d :     0.365952
      dxz     :     0.054313
      dyz     :     0.051260
      dx2y2   :     0.098064
      dxy     :     0.084324
      f0      :     0.005666  f :     0.036656
      f+1     :     0.004145
      f-1     :     0.001716
      f+2     :     0.005845
      f-2     :     0.005762
      f+3     :     0.006755
      f-3     :     0.006767
  7 C s       :     2.780705  s :     2.780705
      pz      :     1.060541  p :     2.910144
      px      :     0.939934
      py      :     0.909668
      dz2     :     0.094469  d :     0.399452
      dxz     :     0.119885
      dyz     :     0.072229
      dx2y2   :     0.062255
      dxy     :     0.050614
      f0      :     0.009505  f :     0.040929
      f+1     :     0.007586
      f-1     :     0.006163
      f+2     :     0.002915
      f-2     :     0.006508
      f+3     :     0.004722
      f-3     :     0.003531
  8 C s       :     2.781442  s :     2.781442
      pz      :     1.065839  p :     2.973227
      px      :     0.954256
      py      :     0.953132
      dz2     :     0.139323  d :     0.377074
      dxz     :     0.099665
      dyz     :     0.076812
      dx2y2   :     0.017413
      dxy     :     0.043861
      f0      :     0.011510  f :     0.039743
      f+1     :     0.007266
      f-1     :     0.005785
      f+2     :     0.005925
      f-2     :     0.005991
      f+3     :     0.000932
      f-3     :     0.002333
  9 H s       :     0.664705  s :     0.664705
      pz      :     0.045349  p :     0.158615
      px      :     0.081315
      py      :     0.031951
 10 H s       :     0.809236  s :     0.809236
      pz      :     0.023672  p :     0.053476
      px      :     0.014682
      py      :     0.015122
 11 H s       :     0.819369  s :     0.819369
      pz      :     0.010597  p :     0.056718
      px      :     0.010041
      py      :     0.036080
 12 H s       :     0.811528  s :     0.811528
      pz      :     0.031785  p :     0.057247
      px      :     0.014164
      py      :     0.011299
 13 H s       :     0.733549  s :     0.733549
      pz      :     0.037904  p :     0.104145
      px      :     0.040716
      py      :     0.025525
 14 H s       :     0.792368  s :     0.792368
      pz      :     0.035454  p :     0.058679
      px      :     0.010744
      py      :     0.012481
 15 H s       :     0.786827  s :     0.786827
      pz      :     0.018659  p :     0.059564
      px      :     0.011825
      py      :     0.029081
 16 H s       :     0.800131  s :     0.800131
      pz      :     0.025991  p :     0.059039
      px      :     0.019382
      py      :     0.013666
 17 H s       :     0.803311  s :     0.803311
      pz      :     0.010085  p :     0.059915
      px      :     0.028124
      py      :     0.021706


                      *****************************
                      * MAYER POPULATION ANALYSIS *
                      *****************************

  NA   - Mulliken gross atomic population
  ZA   - Total nuclear charge
  QA   - Mulliken gross atomic charge
  VA   - Mayer's total valence
  BVA  - Mayer's bonded valence
  FA   - Mayer's free valence

  ATOM       NA         ZA         QA         VA         BVA        FA
  0 O      8.5452     8.0000    -0.5452     1.8629     1.8629     0.0000
  1 C      5.6841     6.0000     0.3159     3.8352     3.8352     0.0000
  2 C      5.9748     6.0000     0.0252     3.8782     3.8782    -0.0000
  3 O      8.3877     8.0000    -0.3877     1.8983     1.8983     0.0000
  4 C      5.7764     6.0000     0.2236     4.2188     4.2188    -0.0000
  5 N      7.4623     7.0000    -0.4623     2.9972     2.9972    -0.0000
  6 C      6.0023     6.0000    -0.0023     3.7840     3.7840     0.0000
  7 C      6.1551     6.0000    -0.1551     3.8934     3.8934    -0.0000
  8 C      6.3574     6.0000    -0.3574     4.0030     4.0030    -0.0000
  9 H      0.6742     1.0000     0.3258     0.9129     0.9129     0.0000
 10 H      0.9209     1.0000     0.0791     0.9665     0.9665     0.0000
 11 H      0.9124     1.0000     0.0876     0.9730     0.9730     0.0000
 12 H      0.8882     1.0000     0.1118     0.9679     0.9679    -0.0000
 13 H      0.7784     1.0000     0.2216     0.9540     0.9540    -0.0000
 14 H      0.8652     1.0000     0.1348     0.9840     0.9840     0.0000
 15 H      0.8830     1.0000     0.1170     0.9976     0.9976     0.0000
 16 H      0.8639     1.0000     0.1361     0.9643     0.9643    -0.0000
 17 H      0.8687     1.0000     0.1313     0.9694     0.9694    -0.0000

  Mayer bond orders larger than 0.1
B(  0-O ,  1-C ) :   0.9475 B(  0-O ,  9-H ) :   0.8872 B(  1-C ,  2-C ) :   0.9642 
B(  1-C ,  8-C ) :   0.9514 B(  1-C , 10-H ) :   0.9900 B(  2-C ,  3-O ) :   0.8945 
B(  2-C , 11-H ) :   0.9840 B(  2-C , 12-H ) :   0.9803 B(  3-O ,  4-C ) :   1.0504 
B(  4-C ,  5-N ) :   2.1414 B(  4-C ,  6-C ) :   0.9546 B(  5-N , 13-H ) :   0.9163 
B(  6-C ,  7-C ) :   0.9717 B(  6-C , 14-H ) :   0.9698 B(  6-C , 15-H ) :   0.9642 
B(  7-C ,  8-C ) :   1.9896 B(  7-C , 16-H ) :   0.9768 B(  8-C , 17-H ) :   0.9745 


-------
TIMINGS
-------

Total SCF time: 0 days 0 hours 2 min 33 sec 

Total time                  ....     153.354 sec
Sum of individual times     ....     157.374 sec  (102.6%)

Fock matrix formation       ....     151.622 sec  ( 98.9%)
Diagonalization             ....       0.695 sec  (  0.5%)
Density matrix formation    ....       0.049 sec  (  0.0%)
Population analysis         ....       0.238 sec  (  0.2%)
Initial guess               ....       2.854 sec  (  1.9%)
Orbital Transformation      ....       0.000 sec  (  0.0%)
Orbital Orthonormalization  ....       0.000 sec  (  0.0%)
DIIS solution               ....       0.208 sec  (  0.1%)
SOSCF solution              ....       0.361 sec  (  0.2%)

   <<< Auxbasis replaced with dsgdb9nsd_093557.AUXC.tmp (Dim=819) >>> 


------------------------------------------------------------------------------
                              ORCA MP2 CALCULATION
------------------------------------------------------------------------------

Freezing NCore=18 chemical core electrons

   <<< Use J-auxbasis for calculation of Separable RI-J derivative contributions dsgdb9nsd_093557.AUXJ.tmp (Dim=843) >>> 


---------------------
RI-MP2 ENERGY+DENSITY
---------------------
Dimension of the basis                    ...  333
Memory devoted to MP2                     ... 2000 MB   
Data format for buffers                   ... DOUBLE
Compression type for matrix containers    ... UNCOMPRESSED
Overall scaling of the MP2 energy         ...   1.000e+00 Eh
Calculating two index integrals           ... done (    0.017 sec)
Cholesky decomposition of V**-1           ... done (    0.115 sec)

-----------------
RI-TRANSFORMATION (AUX index driven)
-----------------

Dimension of the orbital-basis         ... 333
Dimension of the aux-basis             ... 819
Transformation of internal MOs         ...    0-  33
Transformation of internal/external MOs...    0-  33 to   34- 332
Number Format for Storage              ... Double (8 Byte)
Integral mode                          ... Direct

First Phase: integral generation and transformation of MO indices
  Aux angular momentum 0               ... done (    0.756 sec)
  Aux angular momentum 1               ... done (    1.036 sec)
  Aux angular momentum 2               ... done (    1.143 sec)
  Aux angular momentum 3               ... done (    0.895 sec)
  Aux angular momentum 4               ... done (    0.406 sec)
Closing buffer VIJ ( 0.00 GB; CompressionRatio= 1.94)
Closing buffer VIA ( 0.06 GB; CompressionRatio= 1.00)
  Phase 1 completed in     4.336 sec
Second Phase: sorting and transformation of aux index

IJ-Transformation
Memory available                       ... 1987 MB 
Max. # MO pairs treated in a batch     ... 34    
# of internal orbitals                 ... 34
# batches for internal orbitals        ... 1
Closing buffer IJV ( 0.00 GB; CompressionRatio= 1.00)
(ij|v) transformation done in     0.191 sec

IA-Transformation
Memory available                       ... 1987 MB 
Max. # MO pairs treated in a batch     ... 34    
# of internal orbitals                 ... 34
# batches for internal orbitals        ... 1
Closing buffer IAV ( 0.06 GB; CompressionRatio= 1.00)
(ia|v) transformation done in     1.419 sec

  Phase 2 completed in     1.630 sec
RI-Integral transformation completed in     5.966 sec
Opening buffers                              ... done
Frozen core precalculation                   ... done

Starting loop over batches of integrals:

Operator 0  - window                       ... (  9- 33)x( 34-332)
Operator 0  - Memory available             ...  2000 MB
Operator 0  - Memory needed per MO         ...   3.7 MB
Operator 0  - Number of orbitals per batch ... 25
Operator 0  - Number of batches            ... 1

OPERATOR  0   PASS   0:  MOs     9 ...   33
  Reading integrals       ... ok
  Internal MO  11
  Internal MO  14
  Internal MO  17
  Internal MO  20
  Internal MO  23
  Internal MO  26
  Internal MO  29
  Internal MO  32
Time spent in pair loops =    36.333 sec
Deleting buffer (Ka|jb)[aa] ...done

-----------------------------------------------
 RI-MP2 CORRELATION ENERGY:     -1.618421274 Eh
-----------------------------------------------


---------------------
MP2 DENSITY FORMATION
---------------------

Completing the external part of the density      ... done
Storing the unrelaxed density                    ... done

Calculating G(D)                                 ... done
Completing the Lagrangian                        ... done
Solving the Z-vector equations                   ... 

------------------------------------------------------------------------------
                           ORCA CP-SCF CALCULATION
------------------------------------------------------------------------------

Input orbitals are from        ... dsgdb9nsd_093557.gbw
Input Perturbation             ... dsgdb9nsd_093557.pin.tmp
Wavefunction output            ... dsgdb9nsd_093557.pout.tmp
Perturbation mode              ... Real perturbation
Solver                         ... POPLE
Max. number of iterations      ... 128
Convergence tolerance          ... 1.000e-08
Integral handling              ... Direct
Number of perturbations        ... 1
Number of operators            ... 1
Orbital ranges used for CP-SCF:
 Operator 0:  Orbitals   0... 33  to  34...332
Variables per vector in CP-SCF ... 10166
Number of vectors sought       ... 1
     CP-SCF ITERATION   0: 
     CP-SCF ITERATION   1:      0.001204935
     CP-SCF ITERATION   2:      0.000158866
     CP-SCF ITERATION   3:      0.000014779
     CP-SCF ITERATION   4:      0.000001558
     CP-SCF ITERATION   5:      0.000000247
     CP-SCF ITERATION   6:      0.000000048
     CP-SCF ITERATION   7:      0.000000004
done
Finalizing the relaxed density                   ... done
Transforming P to the AO basis                   ... done
Storing the relaxed density                      ... done

                *********************************************
                * UNRELAXED MP2 DENSITY POPULATION ANALYSIS *
                *********************************************

------------------------------------------------------------------------------
                           ORCA POPULATION ANALYSIS
------------------------------------------------------------------------------
Input electron density              ... dsgdb9nsd_093557.pmp2ur
BaseName (.gbw .S,...)              ... dsgdb9nsd_093557

                    ********************************
                    * MULLIKEN POPULATION ANALYSIS *
                    ********************************

-----------------------
MULLIKEN ATOMIC CHARGES
-----------------------
   0 O :   -0.531316
   1 C :    0.298910
   2 C :    0.010950
   3 O :   -0.368634
   4 C :    0.200913
   5 N :   -0.448494
   6 C :   -0.012122
   7 C :   -0.157512
   8 C :   -0.361433
   9 H :    0.323515
  10 H :    0.083511
  11 H :    0.090675
  12 H :    0.115420
  13 H :    0.221869
  14 H :    0.138024
  15 H :    0.120676
  16 H :    0.139994
  17 H :    0.135055
Sum of atomic charges:   -0.0000000

--------------------------------
MULLIKEN REDUCED ORBITAL CHARGES
--------------------------------
  0 O s       :     3.798996  s :     3.798996
      pz      :     1.877465  p :     4.667180
      px      :     1.434529
      py      :     1.355186
      dz2     :     0.010405  d :     0.060666
      dxz     :     0.007645
      dyz     :     0.010647
      dx2y2   :     0.021647
      dxy     :     0.010321
      f0      :     0.000605  f :     0.004475
      f+1     :     0.000696
      f-1     :     0.000690
      f+2     :     0.000590
      f-2     :     0.000436
      f+3     :     0.000660
      f-3     :     0.000799
  1 C s       :     2.999668  s :     2.999668
      pz      :     0.876308  p :     2.484221
      px      :     0.931879
      py      :     0.676034
      dz2     :     0.028457  d :     0.200135
      dxz     :     0.033244
      dyz     :     0.054086
      dx2y2   :     0.039712
      dxy     :     0.044636
      f0      :     0.002166  f :     0.017066
      f+1     :     0.001932
      f-1     :     0.002769
      f+2     :     0.002975
      f-2     :     0.001406
      f+3     :     0.003311
      f-3     :     0.002507
  2 C s       :     3.170799  s :     3.170799
      pz      :     0.893500  p :     2.638936
      px      :     0.846964
      py      :     0.898472
      dz2     :     0.037709  d :     0.164515
      dxz     :     0.037817
      dyz     :     0.019833
      dx2y2   :     0.047700
      dxy     :     0.021456
      f0      :     0.001691  f :     0.014800
      f+1     :     0.002415
      f-1     :     0.001701
      f+2     :     0.002821
      f-2     :     0.001770
      f+3     :     0.002122
      f-3     :     0.002281
  3 O s       :     3.756852  s :     3.756852
      pz      :     1.231279  p :     4.537636
      px      :     1.625934
      py      :     1.680423
      dz2     :     0.019215  d :     0.069092
      dxz     :     0.016972
      dyz     :     0.012218
      dx2y2   :     0.009249
      dxy     :     0.011439
      f0      :     0.001096  f :     0.005054
      f+1     :     0.000840
      f-1     :     0.000840
      f+2     :     0.000539
      f-2     :     0.000719
      f+3     :     0.000496
      f-3     :     0.000523
  4 C s       :     3.116225  s :     3.116225
      pz      :     0.701050  p :     2.407581
      px      :     0.903502
      py      :     0.803028
      dz2     :     0.065104  d :     0.250833
      dxz     :     0.067231
      dyz     :     0.059532
      dx2y2   :     0.026133
      dxy     :     0.032833
      f0      :     0.004291  f :     0.024449
      f+1     :     0.006857
      f-1     :     0.004129
      f+2     :     0.002162
      f-2     :     0.002920
      f+3     :     0.002023
      f-3     :     0.002068
  5 N s       :     3.597802  s :     3.597802
      pz      :     1.498040  p :     3.761845
      px      :     1.068734
      py      :     1.195071
      dz2     :     0.014928  d :     0.082469
      dxz     :     0.025309
      dyz     :     0.018722
      dx2y2   :     0.010707
      dxy     :     0.012803
      f0      :     0.000881  f :     0.006379
      f+1     :     0.000942
      f-1     :     0.000555
      f+2     :     0.001094
      f-2     :     0.001149
      f+3     :     0.000814
      f-3     :     0.000943
  6 C s       :     3.015104  s :     3.015104
      pz      :     1.042088  p :     2.866643
      px      :     0.863163
      py      :     0.961392
      dz2     :     0.024565  d :     0.120169
      dxz     :     0.019010
      dyz     :     0.019928
      dx2y2   :     0.029561
      dxy     :     0.027105
      f0      :     0.001899  f :     0.010207
      f+1     :     0.001232
      f-1     :     0.000987
      f+2     :     0.001130
      f-2     :     0.001323
      f+3     :     0.001669
      f-3     :     0.001967
  7 C s       :     3.162539  s :     3.162539
      pz      :     0.982413  p :     2.852628
      px      :     0.959595
      py      :     0.910620
      dz2     :     0.032257  d :     0.130528
      dxz     :     0.034965
      dyz     :     0.025061
      dx2y2   :     0.020659
      dxy     :     0.017585
      f0      :     0.002017  f :     0.011817
      f+1     :     0.002319
      f-1     :     0.001801
      f+2     :     0.001250
      f-2     :     0.001644
      f+3     :     0.001378
      f-3     :     0.001406
  8 C s       :     3.238058  s :     3.238058
      pz      :     0.940125  p :     2.991942
      px      :     1.008262
      py      :     1.043555
      dz2     :     0.031470  d :     0.119670
      dxz     :     0.034405
      dyz     :     0.027181
      dx2y2   :     0.011531
      dxy     :     0.015082
      f0      :     0.002475  f :     0.011763
      f+1     :     0.002300
      f-1     :     0.001846
      f+2     :     0.001594
      f-2     :     0.001533
      f+3     :     0.000818
      f-3     :     0.001197
  9 H s       :     0.628712  s :     0.628712
      pz      :     0.015951  p :     0.047773
      px      :     0.019560
      py      :     0.012261
 10 H s       :     0.892030  s :     0.892030
      pz      :     0.011349  p :     0.024460
      px      :     0.006259
      py      :     0.006851
 11 H s       :     0.885002  s :     0.885002
      pz      :     0.004136  p :     0.024323
      px      :     0.004258
      py      :     0.015930
 12 H s       :     0.859650  s :     0.859650
      pz      :     0.014351  p :     0.024930
      px      :     0.006139
      py      :     0.004439
 13 H s       :     0.741158  s :     0.741158
      pz      :     0.011260  p :     0.036973
      px      :     0.016002
      py      :     0.009711
 14 H s       :     0.836414  s :     0.836414
      pz      :     0.015695  p :     0.025561
      px      :     0.004536
      py      :     0.005330
 15 H s       :     0.853564  s :     0.853564
      pz      :     0.007432  p :     0.025759
      px      :     0.004907
      py      :     0.013420
 16 H s       :     0.833557  s :     0.833557
      pz      :     0.012099  p :     0.026448
      px      :     0.008562
      py      :     0.005787
 17 H s       :     0.838331  s :     0.838331
      pz      :     0.004318  p :     0.026613
      px      :     0.012678
      py      :     0.009618


                     *******************************
                     * LOEWDIN POPULATION ANALYSIS *
                     *******************************

----------------------
LOEWDIN ATOMIC CHARGES
----------------------
   0 O :   -0.033638
   1 C :   -0.316377
   2 C :   -0.239075
   3 O :    0.193824
   4 C :   -0.356832
   5 N :   -0.076078
   6 C :   -0.184685
   7 C :   -0.134200
   8 C :   -0.173884
   9 H :    0.175138
  10 H :    0.138481
  11 H :    0.125332
  12 H :    0.132852
  13 H :    0.162394
  14 H :    0.150548
  15 H :    0.155111
  16 H :    0.142551
  17 H :    0.138536

-------------------------------
LOEWDIN REDUCED ORBITAL CHARGES
-------------------------------
  0 O s       :     3.357456  s :     3.357456
      pz      :     1.760301  p :     4.572208
      px      :     1.421844
      py      :     1.390063
      dz2     :     0.015090  d :     0.096825
      dxz     :     0.007362
      dyz     :     0.018623
      dx2y2   :     0.033353
      dxy     :     0.022397
      f0      :     0.000725  f :     0.007148
      f+1     :     0.000790
      f-1     :     0.001003
      f+2     :     0.001055
      f-2     :     0.000540
      f+3     :     0.001671
      f-3     :     0.001364
  1 C s       :     2.742838  s :     2.742838
      pz      :     0.982791  p :     2.808515
      px      :     1.016660
      py      :     0.809064
      dz2     :     0.102608  d :     0.673036
      dxz     :     0.107202
      dyz     :     0.171107
      dx2y2   :     0.165863
      dxy     :     0.126256
      f0      :     0.011340  f :     0.091987
      f+1     :     0.007351
      f-1     :     0.015189
      f+2     :     0.015424
      f-2     :     0.008817
      f+3     :     0.017336
      f-3     :     0.016529
  2 C s       :     2.791383  s :     2.791383
      pz      :     0.917076  p :     2.828057
      px      :     0.951976
      py      :     0.959005
      dz2     :     0.113598  d :     0.545073
      dxz     :     0.130210
      dyz     :     0.055155
      dx2y2   :     0.160918
      dxy     :     0.085192
      f0      :     0.007996  f :     0.074562
      f+1     :     0.011573
      f-1     :     0.007341
      f+2     :     0.014121
      f-2     :     0.013353
      f+3     :     0.009354
      f-3     :     0.010823
  3 O s       :     3.245853  s :     3.245853
      pz      :     1.290630  p :     4.419497
      px      :     1.548371
      py      :     1.580497
      dz2     :     0.042985  d :     0.131801
      dxz     :     0.033079
      dyz     :     0.025505
      dx2y2   :     0.014207
      dxy     :     0.016026
      f0      :     0.001961  f :     0.009024
      f+1     :     0.001990
      f-1     :     0.001590
      f+2     :     0.000941
      f-2     :     0.001091
      f+3     :     0.000757
      f-3     :     0.000694
  4 C s       :     2.744928  s :     2.744928
      pz      :     0.879636  p :     2.649982
      px      :     0.997258
      py      :     0.773087
      dz2     :     0.254641  d :     0.832907
      dxz     :     0.229411
      dyz     :     0.155400
      dx2y2   :     0.092817
      dxy     :     0.100639
      f0      :     0.025274  f :     0.129015
      f+1     :     0.042440
      f-1     :     0.018637
      f+2     :     0.012411
      f-2     :     0.015014
      f+3     :     0.007515
      f-3     :     0.007723
  5 N s       :     3.157322  s :     3.157322
      pz      :     1.479880  p :     3.739611
      px      :     1.130964
      py      :     1.128767
      dz2     :     0.030881  d :     0.162479
      dxz     :     0.058338
      dyz     :     0.021922
      dx2y2   :     0.026420
      dxy     :     0.024919
      f0      :     0.002713  f :     0.016666
      f+1     :     0.004041
      f-1     :     0.000873
      f+2     :     0.003230
      f-2     :     0.002846
      f+3     :     0.001291
      f-3     :     0.001672
  6 C s       :     2.759666  s :     2.759666
      pz      :     1.007719  p :     2.988417
      px      :     0.978600
      py      :     1.002099
      dz2     :     0.083629  d :     0.393656
      dxz     :     0.059737
      dyz     :     0.056969
      dx2y2   :     0.103203
      dxy     :     0.090118
      f0      :     0.006608  f :     0.042946
      f+1     :     0.004991
      f-1     :     0.002504
      f+2     :     0.006641
      f-2     :     0.006559
      f+3     :     0.007755
      f-3     :     0.007887
  7 C s       :     2.777997  s :     2.777997
      pz      :     1.050721  p :     2.885098
      px      :     0.931908
      py      :     0.902469
      dz2     :     0.099812  d :     0.423851
      dxz     :     0.123957
      dyz     :     0.077382
      dx2y2   :     0.066370
      dxy     :     0.056331
      f0      :     0.010497  f :     0.047254
      f+1     :     0.008790
      f-1     :     0.007272
      f+2     :     0.003763
      f-2     :     0.007334
      f+3     :     0.005346
      f-3     :     0.004251
  8 C s       :     2.779095  s :     2.779095
      pz      :     1.054642  p :     2.944318
      px      :     0.945821
      py      :     0.943855
      dz2     :     0.143984  d :     0.404225
      dxz     :     0.104556
      dyz     :     0.082202
      dx2y2   :     0.023589
      dxy     :     0.049894
      f0      :     0.012577  f :     0.046246
      f+1     :     0.008655
      f-1     :     0.007053
      f+2     :     0.006725
      f-2     :     0.006793
      f+3     :     0.001496
      f-3     :     0.002946
  9 H s       :     0.662691  s :     0.662691
      pz      :     0.046198  p :     0.162171
      px      :     0.083165
      py      :     0.032807
 10 H s       :     0.802313  s :     0.802313
      pz      :     0.025844  p :     0.059206
      px      :     0.016275
      py      :     0.017087
 11 H s       :     0.812464  s :     0.812464
      pz      :     0.012006  p :     0.062204
      px      :     0.011433
      py      :     0.038765
 12 H s       :     0.804659  s :     0.804659
      pz      :     0.034185  p :     0.062489
      px      :     0.015693
      py      :     0.012612
 13 H s       :     0.729211  s :     0.729211
      pz      :     0.039325  p :     0.108395
      px      :     0.042547
      py      :     0.026524
 14 H s       :     0.785559  s :     0.785559
      pz      :     0.037947  p :     0.063894
      px      :     0.012108
      py      :     0.013839
 15 H s       :     0.780070  s :     0.780070
      pz      :     0.020245  p :     0.064819
      px      :     0.013221
      py      :     0.031353
 16 H s       :     0.793192  s :     0.793192
      pz      :     0.028096  p :     0.064257
      px      :     0.021102
      py      :     0.015059
 17 H s       :     0.796304  s :     0.796304
      pz      :     0.011449  p :     0.065160
      px      :     0.030269
      py      :     0.023442


                      *****************************
                      * MAYER POPULATION ANALYSIS *
                      *****************************

  NA   - Mulliken gross atomic population
  ZA   - Total nuclear charge
  QA   - Mulliken gross atomic charge
  VA   - Mayer's total valence
  BVA  - Mayer's bonded valence
  FA   - Mayer's free valence

  ATOM       NA         ZA         QA         VA         BVA        FA
  0 O      8.5313     8.0000    -0.5313     2.1613     1.7524     0.4089
  1 C      5.7011     6.0000     0.2989     3.9221     3.6089     0.3131
  2 C      5.9891     6.0000     0.0109     3.9754     3.6730     0.3025
  3 O      8.3686     8.0000    -0.3686     2.1920     1.7655     0.4264
  4 C      5.7991     6.0000     0.2009     4.2953     3.9271     0.3681
  5 N      7.4485     7.0000    -0.4485     3.2195     2.7860     0.4335
  6 C      6.0121     6.0000    -0.0121     3.8932     3.5840     0.3092
  7 C      6.1575     6.0000    -0.1575     3.9945     3.6294     0.3651
  8 C      6.3614     6.0000    -0.3614     4.1236     3.7353     0.3883
  9 H      0.6765     1.0000     0.3235     0.9191     0.8676     0.0515
 10 H      0.9165     1.0000     0.0835     0.9755     0.9241     0.0514
 11 H      0.9093     1.0000     0.0907     0.9823     0.9302     0.0521
 12 H      0.8846     1.0000     0.1154     0.9761     0.9272     0.0489
 13 H      0.7781     1.0000     0.2219     0.9614     0.9069     0.0545
 14 H      0.8620     1.0000     0.1380     0.9920     0.9423     0.0497
 15 H      0.8793     1.0000     0.1207     1.0053     0.9541     0.0512
 16 H      0.8600     1.0000     0.1400     0.9716     0.9236     0.0480
 17 H      0.8649     1.0000     0.1351     0.9771     0.9280     0.0490

  Mayer bond orders larger than 0.1
B(  0-O ,  1-C ) :   0.8861 B(  0-O ,  9-H ) :   0.8438 B(  1-C ,  2-C ) :   0.9048 
B(  1-C ,  8-C ) :   0.8931 B(  1-C , 10-H ) :   0.9495 B(  2-C ,  3-O ) :   0.8356 
B(  2-C , 11-H ) :   0.9438 B(  2-C , 12-H ) :   0.9416 B(  3-O ,  4-C ) :   0.9850 
B(  4-C ,  5-N ) :   1.9811 B(  4-C ,  6-C ) :   0.8969 B(  5-N , 13-H ) :   0.8727 
B(  6-C ,  7-C ) :   0.9131 B(  6-C , 14-H ) :   0.9302 B(  6-C , 15-H ) :   0.9247 
B(  7-C ,  8-C ) :   1.8295 B(  7-C , 16-H ) :   0.9383 B(  8-C , 17-H ) :   0.9359 



                *******************************************
                * RELAXED MP2 DENSITY POPULATION ANALYSIS *
                *******************************************

------------------------------------------------------------------------------
                           ORCA POPULATION ANALYSIS
------------------------------------------------------------------------------
Input electron density              ... dsgdb9nsd_093557.pmp2re
BaseName (.gbw .S,...)              ... dsgdb9nsd_093557

                    ********************************
                    * MULLIKEN POPULATION ANALYSIS *
                    ********************************

-----------------------
MULLIKEN ATOMIC CHARGES
-----------------------
   0 O :   -0.466995
   1 C :    0.167857
   2 C :   -0.040004
   3 O :   -0.279280
   4 C :    0.098958
   5 N :   -0.356271
   6 C :   -0.088439
   7 C :   -0.139759
   8 C :   -0.313533
   9 H :    0.317063
  10 H :    0.094905
  11 H :    0.105050
  12 H :    0.132817
  13 H :    0.217565
  14 H :    0.147247
  15 H :    0.134010
  16 H :    0.138195
  17 H :    0.130614
Sum of atomic charges:   -0.0000000

--------------------------------
MULLIKEN REDUCED ORBITAL CHARGES
--------------------------------
  0 O s       :     3.794240  s :     3.794240
      pz      :     1.856883  p :     4.609909
      px      :     1.408629
      py      :     1.344397
      dz2     :     0.010091  d :     0.058444
      dxz     :     0.007713
      dyz     :     0.010692
      dx2y2   :     0.019337
      dxy     :     0.010611
      f0      :     0.000604  f :     0.004402
      f+1     :     0.000682
      f-1     :     0.000685
      f+2     :     0.000582
      f-2     :     0.000436
      f+3     :     0.000652
[...]
      f+2     :     0.002909
      f-2     :     0.001322
      f+3     :     0.003159
      f-3     :     0.002400
  2 C s       :     3.177358  s :     3.177358
      pz      :     0.911684  p :     2.692969
      px      :     0.856875
      py      :     0.924410
      dz2     :     0.034572  d :     0.155637
      dxz     :     0.037229
      dyz     :     0.018353
      dx2y2   :     0.043827
      dxy     :     0.021656
      f0      :     0.001667  f :     0.014041
      f+1     :     0.002171
      f-1     :     0.001601
      f+2     :     0.002736
      f-2     :     0.001724
      f+3     :     0.002030
      f-3     :     0.002112
  3 O s       :     3.746372  s :     3.746372
      pz      :     1.226299  p :     4.460191
      px      :     1.594409
      py      :     1.639482
      dz2     :     0.018018  d :     0.067713
      dxz     :     0.016404
      dyz     :     0.012702
      dx2y2   :     0.009539
      dxy     :     0.011050
      f0      :     0.001041  f :     0.005004
      f+1     :     0.000833
      f-1     :     0.000864
      f+2     :     0.000546
      f-2     :     0.000703
      f+3     :     0.000498
      f-3     :     0.000518
  4 C s       :     3.121726  s :     3.121726
      pz      :     0.743712  p :     2.512773
      px      :     0.904416
      py      :     0.864645
      dz2     :     0.065117  d :     0.243405
      dxz     :     0.068092
      dyz     :     0.055295
      dx2y2   :     0.025127
      dxy     :     0.029773
      f0      :     0.004060  f :     0.023137
      f+1     :     0.006768
      f-1     :     0.003847
      f+2     :     0.002015
      f-2     :     0.002626
      f+3     :     0.001923
      f-3     :     0.001899
  5 N s       :     3.569223  s :     3.569223
      pz      :     1.474100  p :     3.705420
      px      :     1.063751
      py      :     1.167569
      dz2     :     0.015876  d :     0.075568
      dxz     :     0.021506
      dyz     :     0.017078
      dx2y2   :     0.009923
      dxy     :     0.011184
      f0      :     0.000861  f :     0.006060
      f+1     :     0.000895
      f-1     :     0.000541
      f+2     :     0.001002
      f-2     :     0.001076
      f+3     :     0.000784
      f-3     :     0.000901
  6 C s       :     3.057809  s :     3.057809
      pz      :     1.047934  p :     2.912206
      px      :     0.880887
      py      :     0.983384
      dz2     :     0.020252  d :     0.108728
      dxz     :     0.018758
      dyz     :     0.017338
      dx2y2   :     0.028956
      dxy     :     0.023425
      f0      :     0.001751  f :     0.009696
      f+1     :     0.001190
      f-1     :     0.000954
      f+2     :     0.001076
      f-2     :     0.001258
      f+3     :     0.001707
      f-3     :     0.001759
  7 C s       :     3.173762  s :     3.173762
      pz      :     0.966492  p :     2.840255
      px      :     0.956974
      py      :     0.916789
      dz2     :     0.027203  d :     0.114626
      dxz     :     0.030910
      dyz     :     0.021066
      dx2y2   :     0.019583
      dxy     :     0.015864
      f0      :     0.001950  f :     0.011115
      f+1     :     0.002106
      f-1     :     0.001638
      f+2     :     0.001155
      f-2     :     0.001614
      f+3     :     0.001363
      f-3     :     0.001288
  8 C s       :     3.244472  s :     3.244472
      pz      :     0.926087  p :     2.951949
      px      :     0.990668
      py      :     1.035194
      dz2     :     0.030589  d :     0.106035
      dxz     :     0.028076
      dyz     :     0.022339
      dx2y2   :     0.010910
      dxy     :     0.014121
      f0      :     0.002437  f :     0.011077
      f+1     :     0.002048
      f-1     :     0.001696
      f+2     :     0.001505
      f-2     :     0.001450
      f+3     :     0.000805
      f-3     :     0.001136
  9 H s       :     0.634480  s :     0.634480
      pz      :     0.017063  p :     0.048457
      px      :     0.018812
      py      :     0.012581
 10 H s       :     0.881708  s :     0.881708
      pz      :     0.010539  p :     0.023387
      px      :     0.006277
      py      :     0.006571
 11 H s       :     0.871764  s :     0.871764
      pz      :     0.004322  p :     0.023186
      px      :     0.004502
      py      :     0.014363
 12 H s       :     0.843535  s :     0.843535
      pz      :     0.012975  p :     0.023649
      px      :     0.006061
      py      :     0.004612
 13 H s       :     0.746226  s :     0.746226
      pz      :     0.011412  p :     0.036210
      px      :     0.015297
      py      :     0.009501
 14 H s       :     0.828241  s :     0.828241
      pz      :     0.014193  p :     0.024512
      px      :     0.004811
      py      :     0.005508
 15 H s       :     0.841248  s :     0.841248
      pz      :     0.007327  p :     0.024741
      px      :     0.005151
      py      :     0.012264
 16 H s       :     0.836743  s :     0.836743
      pz      :     0.011151  p :     0.025062
      px      :     0.008091
      py      :     0.005820
 17 H s       :     0.844121  s :     0.844121
      pz      :     0.004513  p :     0.025265
      px      :     0.011654
      py      :     0.009098


                     *******************************
                     * LOEWDIN POPULATION ANALYSIS *
                     *******************************

----------------------
LOEWDIN ATOMIC CHARGES
----------------------
   0 O :   -0.012355
   1 C :   -0.345839
   2 C :   -0.270265
   3 O :    0.229129
   4 C :   -0.399706
   5 N :   -0.045338
   6 C :   -0.208741
   7 C :   -0.145308
   8 C :   -0.176917
   9 H :    0.177914
  10 H :    0.146089
  11 H :    0.133028
  12 H :    0.140182
  13 H :    0.166168
  14 H :    0.157443
  15 H :    0.162721
  16 H :    0.147428
  17 H :    0.144366

-------------------------------
LOEWDIN REDUCED ORBITAL CHARGES
-------------------------------
  0 O s       :     3.361561  s :     3.361561
      pz      :     1.744479  p :     4.547074
      px      :     1.418639
      py      :     1.383956
      dz2     :     0.015042  d :     0.096474
      dxz     :     0.007454
      dyz     :     0.019048
      dx2y2   :     0.032150
      dxy     :     0.022780
      f0      :     0.000735  f :     0.007246
      f+1     :     0.000795
      f-1     :     0.001023
      f+2     :     0.001073
      f-2     :     0.000541
      f+3     :     0.001683
      f-3     :     0.001396
  1 C s       :     2.750803  s :     2.750803
      pz      :     0.991890  p :     2.833734
      px      :     1.022988
      py      :     0.818856
      dz2     :     0.101527  d :     0.670929
      dxz     :     0.105417
      dyz     :     0.172400
      dx2y2   :     0.164387
      dxy     :     0.127198
      f0      :     0.011255  f :     0.090373
      f+1     :     0.007107
      f-1     :     0.014728
      f+2     :     0.015105
      f-2     :     0.008744
      f+3     :     0.017008
      f-3     :     0.016425
  2 C s       :     2.799469  s :     2.799469
      pz      :     0.929045  p :     2.860396
      px      :     0.958957
      py      :     0.972394
      dz2     :     0.110998  d :     0.537850
      dxz     :     0.129403
      dyz     :     0.053059
      dx2y2   :     0.159076
      dxy     :     0.085314
      f0      :     0.007788  f :     0.072550
      f+1     :     0.011186
      f-1     :     0.007140
      f+2     :     0.013508
      f-2     :     0.013342
      f+3     :     0.008991
      f-3     :     0.010595
  3 O s       :     3.252287  s :     3.252287
      pz      :     1.292034  p :     4.374500
      px      :     1.528343
      py      :     1.554122
      dz2     :     0.043039  d :     0.134819
      dxz     :     0.033655
      dyz     :     0.027365
      dx2y2   :     0.014637
      dxy     :     0.016123
      f0      :     0.002006  f :     0.009266
      f+1     :     0.002012
      f-1     :     0.001683
      f+2     :     0.000960
      f-2     :     0.001133
      f+3     :     0.000765
      f-3     :     0.000707
  4 C s       :     2.749471  s :     2.749471
      pz      :     0.881502  p :     2.696474
      px      :     0.995570
      py      :     0.819403
      dz2     :     0.257182  d :     0.828337
      dxz     :     0.231685
      dyz     :     0.152091
      dx2y2   :     0.091230
      dxy     :     0.096149
      f0      :     0.024478  f :     0.125423
      f+1     :     0.041638
      f-1     :     0.017100
      f+2     :     0.012464
      f-2     :     0.014874
      f+3     :     0.007287
      f-3     :     0.007581
  5 N s       :     3.160737  s :     3.160737
      pz      :     1.462839  p :     3.708764
      px      :     1.134549
      py      :     1.111376
      dz2     :     0.031281  d :     0.159021
      dxz     :     0.055692
      dyz     :     0.021820
      dx2y2   :     0.025846
      dxy     :     0.024381
      f0      :     0.002651  f :     0.016816
      f+1     :     0.004020
      f-1     :     0.000904
      f+2     :     0.003224
      f-2     :     0.002959
      f+3     :     0.001328
      f-3     :     0.001730
  6 C s       :     2.766751  s :     2.766751
      pz      :     1.017884  p :     3.015300
      px      :     0.986563
      py      :     1.010853
      dz2     :     0.078450  d :     0.383801
      dxz     :     0.060180
      dyz     :     0.054697
      dx2y2   :     0.103363
      dxy     :     0.087112
      f0      :     0.006387  f :     0.042889
      f+1     :     0.004974
      f-1     :     0.002463
      f+2     :     0.006590
      f-2     :     0.006621
      f+3     :     0.008139
      f-3     :     0.007714
  7 C s       :     2.782570  s :     2.782570
      pz      :     1.050962  p :     2.900101
      px      :     0.935523
      py      :     0.913616
      dz2     :     0.099068  d :     0.415599
      dxz     :     0.120997
      dyz     :     0.074587
      dx2y2   :     0.065560
      dxy     :     0.055388
      f0      :     0.010599  f :     0.047038
      f+1     :     0.008585
      f-1     :     0.007221
      f+2     :     0.003684
      f-2     :     0.007383
      f+3     :     0.005303
      f-3     :     0.004263
  8 C s       :     2.785864  s :     2.785864
      pz      :     1.054887  p :     2.947469
      px      :     0.948777
      py      :     0.943804
      dz2     :     0.143440  d :     0.397335
      dxz     :     0.102033
      dyz     :     0.079828
      dx2y2   :     0.023261
      dxy     :     0.048774
      f0      :     0.012574  f :     0.046249
      f+1     :     0.008486
      f-1     :     0.007056
      f+2     :     0.006816
      f-2     :     0.006924
      f+3     :     0.001479
      f-3     :     0.002913
  9 H s       :     0.659017  s :     0.659017
      pz      :     0.047247  p :     0.163069
      px      :     0.083000
      py      :     0.032822
 10 H s       :     0.793315  s :     0.793315
      pz      :     0.025968  p :     0.060596
      px      :     0.016914
      py      :     0.017715
 11 H s       :     0.803678  s :     0.803678
      pz      :     0.012566  p :     0.063294
      px      :     0.012012
      py      :     0.038716
 12 H s       :     0.796579  s :     0.796579
      pz      :     0.033980  p :     0.063240
      px      :     0.016130
      py      :     0.013130
 13 H s       :     0.725320  s :     0.725320
      pz      :     0.040109  p :     0.108512
      px      :     0.042469
      py      :     0.025934
 14 H s       :     0.777744  s :     0.777744
      pz      :     0.037488  p :     0.064813
      px      :     0.012879
      py      :     0.014446
 15 H s       :     0.771437  s :     0.771437
      pz      :     0.020724  p :     0.065842
      px      :     0.013988
      py      :     0.031131
 16 H s       :     0.787938  s :     0.787938
      pz      :     0.028025  p :     0.064634
      px      :     0.021124
      py      :     0.015485
 17 H s       :     0.790079  s :     0.790079
      pz      :     0.012282  p :     0.065554
      px      :     0.029914
      py      :     0.023358


                      *****************************
                      * MAYER POPULATION ANALYSIS *
                      *****************************

  NA   - Mulliken gross atomic population
  ZA   - Total nuclear charge
  QA   - Mulliken gross atomic charge
  VA   - Mayer's total valence
  BVA  - Mayer's bonded valence
  FA   - Mayer's free valence

  ATOM       NA         ZA         QA         VA         BVA        FA
  0 O      8.4670     8.0000    -0.4670     2.2304     1.8301     0.4003
  1 C      5.8321     6.0000     0.1679     4.0268     3.7175     0.3094
  2 C      6.0400     6.0000    -0.0400     3.9705     3.6736     0.2970
  3 O      8.2793     8.0000    -0.2793     2.3203     1.9057     0.4146
  4 C      5.9010     6.0000     0.0990     4.4511     4.0978     0.3532
  5 N      7.3563     7.0000    -0.3563     3.3005     2.8805     0.4200
  6 C      6.0884     6.0000    -0.0884     3.8623     3.5568     0.3056
  7 C      6.1398     6.0000    -0.1398     3.9939     3.6362     0.3577
  8 C      6.3135     6.0000    -0.3135     4.1388     3.7599     0.3789
  9 H      0.6829     1.0000     0.3171     0.9211     0.8696     0.0515
 10 H      0.9051     1.0000     0.0949     0.9669     0.9168     0.0501
 11 H      0.8950     1.0000     0.1050     0.9742     0.9232     0.0511
 12 H      0.8672     1.0000     0.1328     0.9668     0.9189     0.0479
 13 H      0.7824     1.0000     0.2176     0.9637     0.9102     0.0535
 14 H      0.8528     1.0000     0.1472     0.9921     0.9434     0.0486
 15 H      0.8660     1.0000     0.1340     1.0049     0.9552     0.0496
 16 H      0.8618     1.0000     0.1382     0.9696     0.9220     0.0476
 17 H      0.8694     1.0000     0.1306     0.9755     0.9270     0.0484

  Mayer bond orders larger than 0.1
B(  0-O ,  1-C ) :   0.9370 B(  0-O ,  9-H ) :   0.8424 B(  1-C ,  2-C ) :   0.9064 
B(  1-C ,  8-C ) :   0.9444 B(  1-C , 10-H ) :   0.9267 B(  2-C ,  3-O ) :   0.8928 
B(  2-C , 11-H ) :   0.9239 B(  2-C , 12-H ) :   0.9257 B(  3-O ,  4-C ) :   1.0548 
B(  4-C ,  5-N ) :   2.0656 B(  4-C ,  6-C ) :   0.8986 B(  5-N , 13-H ) :   0.8583 
B(  6-C ,  7-C ) :   0.9369 B(  6-C , 14-H ) :   0.9130 B(  6-C , 15-H ) :   0.9024 
B(  7-C ,  8-C ) :   1.7971 B(  7-C , 16-H ) :   0.9285 B(  8-C , 17-H ) :   0.9268 



-------
TIMINGS
-------

Total time                :  853.510 sec
Integral trafo            :    5.975 sec (  0.7%)
FC preparation            :    3.462 sec (  0.4%)
I/O of integrals          :    0.050 sec (  0.0%)
K(i,j) Operators          :    8.785 sec (  1.0%)
T(i,j) pair energies      :    0.798 sec (  0.1%)
V-calculation             :    0.017 sec (  0.0%)
V**(-1/2)                 :    0.115 sec (  0.0%)
Gamma(ia|P)               :    8.628 sec (  1.0%)
Gamma-Trafo               :    1.387 sec (  0.2%)
D(virtual)                :    3.266 sec (  0.4%)
D(internal)               :    3.025 sec (  0.4%)
W(virtual)                :    0.000 sec (  0.0%)
W(internal)               :    0.000 sec (  0.0%)
L(virtual)                :    9.903 sec (  1.2%)
L(internal)               :    0.187 sec (  0.0%)
G(D)                      :  102.046 sec ( 12.0%)
G(Z)                      :    0.000 sec (  0.0%)
Z-Vector Solution         :  705.157 sec ( 82.6%)
3-Index Derivative        :    0.000 sec (  0.0%)
2-Index Derivative        :    0.000 sec (  0.0%)
Separable Gradient (RIJ)  :    0.000 sec (  0.0%)
Separable Gradient (X)    :    0.000 sec (  0.0%)


---------------------------------------
MP2 TOTAL ENERGY:     -438.357536573 Eh
---------------------------------------

-------------------------   --------------------
FINAL SINGLE POINT ENERGY      -438.357536572815
-------------------------   --------------------


                            ***************************************
                            *     ORCA property calculations      *
                            ***************************************

                                    ---------------------
                                    Active property flags
                                    ---------------------
   (+) Dipole Moment


------------------------------------------------------------------------------
                       ORCA ELECTRIC PROPERTIES CALCULATION
------------------------------------------------------------------------------

Dipole Moment Calculation                       ... on
Quadrupole Moment Calculation                   ... off
Polarizability Calculation                      ... off
GBWName                                         ... dsgdb9nsd_093557.gbw
Electron density file                           ... dsgdb9nsd_093557.scfp.tmp

-------------
DIPOLE MOMENT
-------------
                                X             Y             Z
Electronic contribution:     -2.23262       1.02913       0.01440
Nuclear contribution   :      3.59291      -1.55227       0.63981
                        -----------------------------------------
Total Dipole Moment    :      1.36029      -0.52314       0.65420
                        -----------------------------------------
Magnitude (a.u.)       :      1.59751
Magnitude (Debye)      :      4.06055


                         *** MP2 UNRELAXED DENSITY ***

------------------------------------------------------------------------------
                       ORCA ELECTRIC PROPERTIES CALCULATION
------------------------------------------------------------------------------

Dipole Moment Calculation                       ... on
Quadrupole Moment Calculation                   ... off
Polarizability Calculation                      ... off
GBWName                                         ... dsgdb9nsd_093557.gbw
Electron density file                           ... dsgdb9nsd_093557.pmp2ur

-------------
DIPOLE MOMENT
-------------
                                X             Y             Z
Electronic contribution:     -2.27235       1.04944       0.01136
Nuclear contribution   :      3.59291      -1.55227       0.63981
                        -----------------------------------------
Total Dipole Moment    :      1.32056      -0.50284       0.65116
                        -----------------------------------------
Magnitude (a.u.)       :      1.55587
Magnitude (Debye)      :      3.95471


                           *** MP2 RELAXED DENSITY ***

------------------------------------------------------------------------------
                       ORCA ELECTRIC PROPERTIES CALCULATION
------------------------------------------------------------------------------

Dipole Moment Calculation                       ... on
Quadrupole Moment Calculation                   ... off
Polarizability Calculation                      ... off
GBWName                                         ... dsgdb9nsd_093557.gbw
Electron density file                           ... dsgdb9nsd_093557.pmp2re

-------------
DIPOLE MOMENT
-------------
                                X             Y             Z
Electronic contribution:     -2.38042       1.06598      -0.02381
Nuclear contribution   :      3.59291      -1.55227       0.63981
                        -----------------------------------------
Total Dipole Moment    :      1.21250      -0.48629       0.61600
                        -----------------------------------------
Magnitude (a.u.)       :      1.44433
Magnitude (Debye)      :      3.67119


Timings for individual modules:

Sum of individual times         ...     1010.467 sec (=  16.841 min)
GTO integral calculation        ...        0.531 sec (=   0.009 min)   0.1 %
SCF iterations                  ...      156.281 sec (=   2.605 min)  15.5 %
MP2 module                      ...      853.655 sec (=  14.228 min)  84.5 %
                             ****ORCA TERMINATED NORMALLY****
TOTAL RUN TIME: 0 days 0 hours 16 minutes 50 seconds 946 msec
