
                                 *****************
                                 * O   R   C   A *
                                 *****************

           --- An Ab Initio, DFT and Semiempirical electronic structure package ---

                  #######################################################
                  #                        -***-                        #
                  #  Department of molecular theory and spectroscopy    #
                  #              Directorship: Frank Neese              #
                  # Max Planck Institute for Chemical Energy Conversion #
                  #                  D-45470 Muelheim/Ruhr              #
                  #                       Germany                       #
                  #                                                     #
                  #                  All rights reserved                #
                  #                        -***-                        #
                  #######################################################


                         Program Version 3.0.3 - RELEASE   -


 With contributions from (in alphabetic order):
   Ute Becker             : Parallelization
   Dmytro Bykov           : SCF Hessian
   Dmitry Ganyushin       : Spin-Orbit,Spin-Spin,Magnetic field MRCI
   Andreas Hansen         : Spin unrestricted coupled pair/coupled cluster methods
   Dimitrios Liakos       : Extrapolation schemes; parallel MDCI
   Robert Izsak           : Overlap fitted RIJCOSX, COSX-SCS-MP3
   Christian Kollmar      : KDIIS, OOCD, Brueckner-CCSD(T), CCSD density
   Simone Kossmann        : Meta GGA functionals, TD-DFT gradient, OOMP2, MP2 Hessian
   Taras Petrenko         : DFT Hessian,TD-DFT gradient, ASA and ECA modules, normal mode analysis, Resonance Raman, ABS, FL, XAS/XES, NRVS
   Christoph Reimann      : Effective Core Potentials
   Michael Roemelt        : Restricted open shell CIS
   Christoph Riplinger    : Improved optimizer, TS searches, QM/MM, DLPNO-CCSD
   Barbara Sandhoefer     : DKH picture change effects
   Igor Schapiro          : Molecular dynamics
   Kantharuban Sivalingam : CASSCF convergence, NEVPT2
   Boris Wezisla          : Elementary symmetry handling
   Frank Wennmohs         : Technical directorship


 We gratefully acknowledge several colleagues who have allowed us to
 interface, adapt or use parts of their codes:
   Stefan Grimme, W. Hujo, H. Kruse, T. Risthaus : VdW corrections, initial TS optimization,
                                                   DFT functionals, gCP
   Ed Valeev                                     : LibInt (2-el integral package), F12 methods
   Garnet Chan, S. Sharma, R. Olivares           : DMRG
   Ulf Ekstrom                                   : XCFun DFT Library
   Mihaly Kallay                                 : mrcc  (arbitrary order and MRCC methods)
   Andreas Klamt, Michael Diedenhofen            : otool_cosmo (COSMO solvation model)
   Frank Weinhold                                : gennbo (NPA and NBO analysis)
   Christopher J. Cramer and Donald G. Truhlar   : smd solvation model


 Your calculation uses the libint2 library for the computation of 2-el integrals
 For citations please refer to: http://libint.valeyev.net

 This ORCA versions uses:
   CBLAS   interface :  Fast vector & matrix operations
   LAPACKE interface :  Fast linear algebra routines
   SCALAPACK package :  Parallel linear algebra routines


Your calculation utilizes the basis: Ahlrichs-TZV
Cite in your paper:
H - Kr: A. Schaefer, H. Horn and R. Ahlrichs, J. Chem. Phys. 97, 2571 (1992).

The def2-TZV basis will be loaded
Cite in your paper:
 	F. Weigend, R. Ahlrichs, Phys. Chem. Chem. Phys. 2005, 7, 3297.

================================================================================
                                        WARNINGS
                       Please study these warnings very carefully!
================================================================================
Now building the actual basis set


INFO   : the flag for use of LIBINT has been found!

================================================================================
                                       INPUT FILE
================================================================================
NAME = dsgdb9nsd_021037.inp
|  1> ! RI-MP2 RIJK def2-TZVP def2-TZVP/C def2-TZVP/JK TIGHTSCF
|  2> % maxcore 2000
|  3> % mp2 density relaxed end
|  4> *xyz 0 1
|  5>  C        0.0742486636     1.4146246941    -0.0640410733 
|  6>  N        0.0541331352    -0.0270845402    -0.0228631007 
|  7>  N        0.1131774248    -0.7913576257    -1.1742922308 
|  8>  C        0.0729436397    -2.0030182214    -0.7438724587 
|  9>  C        0.1058495308    -3.2439451436    -1.5518653177 
| 10>  O       -0.0086204440    -2.1055749749     0.6109215997 
| 11>  C       -0.0219185405    -0.7955564280     1.1037454088 
| 12>  O       -0.0870334721    -0.4982862508     2.2638608580 
| 13>  H        0.9988602018     1.7749528719    -0.5241903679 
| 14>  H       -0.7801837640     1.7967338355    -0.6300882213 
| 15>  H        0.0171399192     1.7650241593     0.9675461545 
| 16>  H        0.9672885784    -3.8612467108    -1.2776260529 
| 17>  H       -0.7959532262    -3.8405598477    -1.3811856798 
| 18>  H        0.1710054535    -2.9819470579    -2.6083708079 
| 19> *
| 20> 
| 21>                          ****END OF INPUT****
================================================================================

                       ****************************
                       * Single Point Calculation *
                       ****************************

---------------------------------
CARTESIAN COORDINATES (ANGSTROEM)
---------------------------------
  C      0.074249    1.414625   -0.064041
  N      0.054133   -0.027085   -0.022863
  N      0.113177   -0.791358   -1.174292
  C      0.072944   -2.003018   -0.743872
  C      0.105850   -3.243945   -1.551865
  O     -0.008620   -2.105575    0.610922
  C     -0.021919   -0.795556    1.103745
  O     -0.087033   -0.498286    2.263861
  H      0.998860    1.774953   -0.524190
  H     -0.780184    1.796734   -0.630088
  H      0.017140    1.765024    0.967546
  H      0.967289   -3.861247   -1.277626
  H     -0.795953   -3.840560   -1.381186
  H      0.171005   -2.981947   -2.608371

----------------------------
CARTESIAN COORDINATES (A.U.)
----------------------------
  NO LB      ZA    FRAG    MASS        X           Y           Z
   0 C     6.0000    0    12.011          0.140309640013648          2.673253254131126         -0.121020089859376
   1 N     7.0000    0    14.007          0.102296800298532         -0.051182363441181         -0.043204998895263
   2 N     7.0000    0    14.007          0.213874337414467         -1.495449186563162         -2.219090717403446
   3 C     6.0000    0    12.011          0.137843502244426         -3.785155879700044         -1.405715225509647
   4 C     6.0000    0    12.011          0.200026624616062         -6.130167914867847         -2.932600447183696
   5 O     8.0000    0    15.999         -0.016290278312805         -3.978960056999114          1.154474512730068
   6 C     6.0000    0    12.011         -0.041420038800261         -1.503383773000641          2.085776544204955
   7 O     8.0000    0    15.999         -0.164469426753276         -0.941624550310399          4.278077026923988
   8 H     1.0000    0     1.008          1.887572227475315          3.354174828508010         -0.990576237370425
   9 H     1.0000    0     1.008         -1.474333648091850          3.395334884644917         -1.190694178466567
  10 H     1.0000    0     1.008          0.032389753245539          3.335412280831596          1.828397253933659
  11 H     1.0000    0     1.008          1.827910505646016         -7.296698818916234         -2.414363341543786
  12 H     1.0000    0     1.008         -1.504133612929073         -7.257606313087312         -2.610062674915850
  13 H     1.0000    0     1.008          0.323153474522005         -5.635063285283217         -4.929106482645919

--------------------------------
INTERNAL COORDINATES (ANGSTROEM)
--------------------------------
 C      0   0   0   0.000000     0.000     0.000
 N      1   0   0   1.442437     0.000     0.000
 N      2   1   0   1.383253   121.862     0.000
 C      3   2   1   1.286469   103.919   179.991
 C      4   3   2   1.481160   127.292   180.001
 O      4   3   2   1.361116   113.945     0.000
 C      2   1   3   1.365862   125.921   179.984
 O      7   2   1   1.199365   131.408     0.000
 H      1   2   3   1.093837   110.674   299.444
 H      1   2   3   1.093833   110.673    60.544
 H      1   2   3   1.090969   107.055   179.994
 H      5   4   3   1.094690   110.687   120.370
 H      5   4   3   1.094682   110.687   239.547
 H      5   4   3   1.090455   109.181   359.960

---------------------------
INTERNAL COORDINATES (A.U.)
---------------------------
 C      0   0   0   0.000000     0.000     0.000
 N      1   0   0   2.725812     0.000     0.000
 N      2   1   0   2.613969   121.862     0.000
 C      3   2   1   2.431073   103.919   179.991
 C      4   3   2   2.798987   127.292   180.001
 O      4   3   2   2.572137   113.945     0.000
 C      2   1   3   2.581106   125.921   179.984
 O      7   2   1   2.266472   131.408     0.000
 H      1   2   3   2.067053   110.674   299.444
 H      1   2   3   2.067046   110.673    60.544
 H      1   2   3   2.061633   107.055   179.994
 H      5   4   3   2.068664   110.687   120.370
 H      5   4   3   2.068649   110.687   239.547
 H      5   4   3   2.060661   109.181   359.960

---------------------
BASIS SET INFORMATION
---------------------
There are 4 groups of distinct atoms

 Group   1 Type C   : 11s6p2d1f contracted to 5s3p2d1f pattern {62111/411/11/1}
 Group   2 Type N   : 11s6p2d1f contracted to 5s3p2d1f pattern {62111/411/11/1}
 Group   3 Type O   : 11s6p2d1f contracted to 5s3p2d1f pattern {62111/411/11/1}
 Group   4 Type H   : 5s1p contracted to 3s1p pattern {311/1}

Atom   0C    basis set group =>   1
Atom   1N    basis set group =>   2
Atom   2N    basis set group =>   2
Atom   3C    basis set group =>   1
Atom   4C    basis set group =>   1
Atom   5O    basis set group =>   3
Atom   6C    basis set group =>   1
Atom   7O    basis set group =>   3
Atom   8H    basis set group =>   4
Atom   9H    basis set group =>   4
Atom  10H    basis set group =>   4
Atom  11H    basis set group =>   4
Atom  12H    basis set group =>   4
Atom  13H    basis set group =>   4
-------------------------------
AUXILIARY BASIS SET INFORMATION
-------------------------------
There are 4 groups of distinct atoms

 Group   1 Type C   : 14s10p6d2f1g contracted to 10s8p5d1f1g pattern {5111111111/31111111/21111/2/1}
 Group   2 Type N   : 14s10p6d2f1g contracted to 10s8p4d2f1g pattern {5111111111/31111111/3111/11/1}
 Group   3 Type O   : 14s10p6d2f1g contracted to 10s8p4d2f1g pattern {5111111111/31111111/3111/11/1}
 Group   4 Type H   : 4s2p2d contracted to 2s2p2d pattern {31/11/11}

Atom   0C    basis set group =>   1
Atom   1N    basis set group =>   2
Atom   2N    basis set group =>   2
Atom   3C    basis set group =>   1
Atom   4C    basis set group =>   1
Atom   5O    basis set group =>   3
Atom   6C    basis set group =>   1
Atom   7O    basis set group =>   3
Atom   8H    basis set group =>   4
Atom   9H    basis set group =>   4
Atom  10H    basis set group =>   4
Atom  11H    basis set group =>   4
Atom  12H    basis set group =>   4
Atom  13H    basis set group =>   4
------------------------------------------------------------------------------
                           ORCA GTO INTEGRAL CALCULATION
                           -- RI-GTO INTEGRALS CHOSEN --
------------------------------------------------------------------------------

                         BASIS SET STATISTICS AND STARTUP INFO

Gaussian basis set:
 # of primitive gaussian shells          ...  196
 # of primitive gaussian functions       ...  416
 # of contracted shells                  ...  112
 # of contracted basis functions         ...  284
 Highest angular momentum                ...    3
 Maximum contraction depth               ...    6
Auxiliary gaussian basis set:
 # of primitive gaussian shells          ...  312
 # of primitive gaussian functions       ...  896
 # of contracted shells                  ...  236
 # of contracted aux-basis functions     ...  716
 Highest angular momentum                ...    4
 Maximum contraction depth               ...    5
Ratio of auxiliary to basis functions    ...  2.52
Integral package used                  ... LIBINT
 One Electron integrals                  ... done
 Ordering auxiliary basis shells         ... done
 Integral threshhold             Thresh  ...  2.500e-11
 Primitive cut-off               TCut    ...  2.500e-12
 Pre-screening matrix                    ... done
 Shell pair data                         ... 
 Ordering of the shell pairs             ... done (   0.001 sec) 5772 of 6328 pairs
 Determination of significant pairs      ... done (   0.000 sec)
 Creation of shell pair data             ... done (   0.001 sec)
 Storage of shell pair data              ... done (   0.001 sec)
 Shell pair data done in (   0.004 sec)
 Computing two index integrals           ... done
 Cholesky decomposition of the V-matrix  ... done


Timings:
 Total evaluation time                   ...   0.300 sec (  0.005 min)
 One electron matrix time                ...   0.055 sec (  0.001 min) = 18.2%
 Schwartz matrix evaluation time         ...   0.176 sec (  0.003 min) = 58.9%
 Two index repulsion integral time       ...   0.016 sec (  0.000 min) =  5.5%
 Cholesky decomposition of V             ...   0.021 sec (  0.000 min) =  7.0%
 Three index repulsion integral time     ...   0.000 sec (  0.000 min) =  0.0%

-------------------------------------------------------------------------------
                                 ORCA SCF
-------------------------------------------------------------------------------

------------
SCF SETTINGS
------------
Hamiltonian:
 Ab initio Hamiltonian  Method          .... Hartree-Fock(GTOs)
 RI-approximation to the Coulomb term is turned on
   Number of auxiliary basis functions  .... 716
   RI-JK (J+K treated both via RI)      .... on


General Settings:
 Integral files         IntName         .... dsgdb9nsd_021037
 Hartree-Fock type      HFTyp           .... RHF
 Total Charge           Charge          ....    0
 Multiplicity           Mult            ....    1
 Number of Electrons    NEL             ....   60
 Basis Dimension        Dim             ....  284
 Nuclear Repulsion      ENuc            ....    381.0646496412 Eh

Convergence Acceleration:
 DIIS                   CNVDIIS         .... on
   Start iteration      DIISMaxIt       ....    12
   Startup error        DIISStart       ....  0.200000
   # of expansion vecs  DIISMaxEq       ....     5
   Bias factor          DIISBfac        ....   1.050
   Max. coefficient     DIISMaxC        ....  10.000
 Newton-Raphson         CNVNR           .... off
 SOSCF                  CNVSOSCF        .... on
   Start iteration      SOSCFMaxIt      ....   150
   Startup grad/error   SOSCFStart      ....  0.003300
 Level Shifting         CNVShift        .... on
   Level shift para.    LevelShift      ....    0.2500
   Turn off err/grad.   ShiftErr        ....    0.0010
 Zerner damping         CNVZerner       .... off
 Static damping         CNVDamp         .... on
   Fraction old density DampFac         ....    0.7000
   Max. Damping (<1)    DampMax         ....    0.9800
   Min. Damping (>=0)   DampMin         ....    0.0000
   Turn off err/grad.   DampErr         ....    0.1000
 Fernandez-Rico         CNVRico         .... off

SCF Procedure:
 Maximum # iterations   MaxIter         ....   125
 SCF integral mode      SCFMode         .... Direct
   Integral package                     .... LIBINT
 Reset frequeny         DirectResetFreq ....    20
 Integral Threshold     Thresh          ....  2.500e-11 Eh
 Primitive CutOff       TCut            ....  2.500e-12 Eh

Convergence Tolerance:
 Convergence Check Mode ConvCheckMode   .... Total+1el-Energy
 Energy Change          TolE            ....  1.000e-08 Eh
 1-El. energy change                    ....  1.000e-05 Eh
 Orbital Gradient       TolG            ....  1.000e-05
 Orbital Rotation angle TolX            ....  1.000e-05
 DIIS Error             TolErr          ....  5.000e-07


Diagonalization of the overlap matrix:
Smallest eigenvalue                        ... 1.859e-04
Time for diagonalization                   ...    0.023 sec
Threshold for overlap eigenvalues          ... 1.000e-08
Number of eigenvalues below threshold      ... 0
Time for construction of square roots      ...    0.010 sec
Total time needed                          ...    0.033 sec

-------------------
DFT GRID GENERATION
-------------------

General Integration Accuracy     IntAcc      ...  4.340
Radial Grid Type                 RadialGrid  ... Gauss-Chebyshev
Angular Grid (max. acc.)         AngularGrid ... Lebedev-110
Angular grid pruning method      GridPruning ... 3 (G Style)
Weight generation scheme         WeightScheme... Becke
Basis function cutoff            BFCut       ...    1.0000e-11
Integration weight cutoff        WCut        ...    1.0000e-14
Grids for H and He will be reduced by one unit

# of grid points (after initial pruning)     ...  18224 (   0.0 sec)
# of grid points (after weights+screening)   ...  17139 (   0.1 sec)
nearest neighbour list constructed           ...    0.0 sec
Grid point re-assignment to atoms done       ...    0.0 sec
Grid point division into batches done        ...    0.0 sec
Reduced shell lists constructed in    0.9 sec

Total number of grid points                  ...    17139
Total number of batches                      ...      274
Average number of points per batch           ...       62
Average number of grid points per atom       ...     1224
Average number of shells per batch           ...    74.95 (66.92%)
Average number of basis functions per batch  ...   196.52 (69.20%)
Average number of large shells per batch     ...    59.36 (79.20%)
Average number of large basis fcns per batch ...   153.20 (77.96%)
Average number of aux-shells per batch       ...    74.95 (31.76%)
Average number of aux functions per batch    ...   196.52 (  inf%)
Maximum spatial batch extension              ...  25.60, 20.01, 21.25 au
Average spatial batch extension              ...   3.92,  3.88,  3.96 au

Time for grid setup =    0.958 sec

------------------------------
INITIAL GUESS: MODEL POTENTIAL
------------------------------
Loading Hartree-Fock densities                     ... done
Calculating cut-offs                               ... done
Setting up the integral package                    ... done
Initializing the effective Hamiltonian             ... done
Starting the Coulomb interaction                   ... done (   0.4 sec)
Reading the grid                                   ... done
Mapping shells                                     ... done
Starting the XC term evaluation                    ... done (   0.4 sec)
Transforming the Hamiltonian                       ... done (   0.0 sec)
Diagonalizing the Hamiltonian                      ... done (   0.0 sec)
Back transforming the eigenvectors                 ... done (   0.0 sec)
Now organizing SCF variables                       ... done
                      ------------------
                      INITIAL GUESS DONE (   1.9 sec)
                      ------------------
--------------
SCF ITERATIONS
--------------
ITER       Energy         Delta-E        Max-DP      RMS-DP      [F,P]     Damp
  0   -413.4176680871   0.000000000000 0.04490245  0.00075078  0.3027654 0.7000
  1   -413.2946529000   0.123015187014 0.04526770  0.00078393  0.2903460 0.7000
                               ***Turning on DIIS***
  2   -413.3320286270  -0.037375726959 0.02978923  0.00056543  0.1895728 0.7000
  3   -414.0109455141  -0.678916887096 0.01339811  0.00030916  0.1359335 0.7000
  4   -413.6679499279   0.342995586241 0.02499422  0.00076527  0.0867099 0.0000
  5   -413.6980775008  -0.030127572975 0.01342180  0.00023727  0.0424095 0.0000
  6   -413.6663393014   0.031738199393 0.00610106  0.00010487  0.0129307 0.0000
  7   -413.6915559709  -0.025216669456 0.00303959  0.00005936  0.0079053 0.0000
  8   -413.7046013679  -0.013045397029 0.00250946  0.00004745  0.0059373 0.0000
                      *** Initiating the SOSCF procedure ***
                           *** Shutting down DIIS ***
                      *** Re-Reading the Fockian *** 
                      *** Removing any level shift *** 
ITER      Energy       Delta-E        Grad      Rot      Max-DP    RMS-DP
  9   -413.74768106  -0.0430796968  0.000969  0.000969  0.000584  0.000012
 10   -413.74950441  -0.0018233466  0.000477  0.000943  0.000388  0.000009
 11   -413.74950746  -0.0000030527  0.000276  0.001369  0.000581  0.000012
 12   -413.74950880  -0.0000013345  0.000076  0.000128  0.000105  0.000002
 13   -413.74950894  -0.0000001397  0.000024  0.000040  0.000026  0.000001
 14   -413.74950895  -0.0000000166  0.000007  0.000016  0.000011  0.000000
                 **** Energy Check signals convergence ****
              ***Rediagonalizing the Fockian in SOSCF/NRSCF***

               *****************************************************
               *                     SUCCESS                       *
               *           SCF CONVERGED AFTER  15 CYCLES          *
               *****************************************************


----------------
TOTAL SCF ENERGY
----------------

Total Energy       :         -413.74950896 Eh          -11258.69652 eV

Components:
Nuclear Repulsion  :          381.06464964 Eh           10369.29628 eV
Electronic Energy  :         -794.81415860 Eh          -21627.99280 eV

One Electron Energy:        -1319.73308335 Eh          -35911.76292 eV
Two Electron Energy:          524.91892475 Eh           14283.77012 eV

Virial components:
Potential Energy   :         -826.85382430 Eh          -22499.83643 eV
Kinetic Energy     :          413.10431534 Eh           11241.13991 eV
Virial Ratio       :            2.00156182


---------------
SCF CONVERGENCE
---------------

  Last Energy change         ...   -1.8315e-09  Tolerance :   1.0000e-08
  Last MAX-Density change    ...    6.4883e-06  Tolerance :   1.0000e-07
  Last RMS-Density change    ...    1.1214e-07  Tolerance :   5.0000e-09
  Last Orbital Gradient      ...    3.0802e-06  Tolerance :   1.0000e-05
  Last Orbital Rotation      ...    9.8754e-06  Tolerance :   1.0000e-05

             **** THE GBW FILE WAS UPDATED (dsgdb9nsd_021037.gbw) ****
             **** DENSITY FILE WAS UPDATED (dsgdb9nsd_021037.scfp.tmp) ****
             **** ENERGY FILE WAS UPDATED (dsgdb9nsd_021037.en.tmp) ****
----------------
ORBITAL ENERGIES
----------------

  NO   OCC          E(Eh)            E(eV) 
   0   2.0000     -20.645655      -561.7968 
   1   2.0000     -20.538567      -558.8828 
   2   2.0000     -15.639627      -425.5759 
   3   2.0000     -15.616093      -424.9355 
   4   2.0000     -11.416227      -310.6513 
   5   2.0000     -11.360858      -309.1447 
   6   2.0000     -11.277598      -306.8790 
   7   2.0000     -11.261506      -306.4411 
   8   2.0000      -1.522919       -41.4407 
   9   2.0000      -1.390723       -37.8435 
  10   2.0000      -1.338748       -36.4292 
  11   2.0000      -1.161313       -31.6009 
  12   2.0000      -1.038206       -28.2510 
  13   2.0000      -0.967097       -26.3160 
  14   2.0000      -0.853875       -23.2351 
  15   2.0000      -0.838044       -22.8043 
  16   2.0000      -0.718271       -19.5452 
  17   2.0000      -0.715921       -19.4812 
  18   2.0000      -0.654443       -17.8083 
  19   2.0000      -0.634575       -17.2677 
  20   2.0000      -0.625837       -17.0299 
  21   2.0000      -0.611316       -16.6348 
  22   2.0000      -0.596696       -16.2369 
  23   2.0000      -0.588359       -16.0101 
  24   2.0000      -0.563114       -15.3231 
  25   2.0000      -0.527241       -14.3470 
  26   2.0000      -0.524471       -14.2716 
  27   2.0000      -0.504735       -13.7346 
  28   2.0000      -0.459251       -12.4969 
  29   2.0000      -0.356329        -9.6962 
  30   0.0000       0.131106         3.5676 
  31   0.0000       0.149445         4.0666 
  32   0.0000       0.150690         4.1005 
  33   0.0000       0.192677         5.2430 
  34   0.0000       0.198287         5.3957 
  35   0.0000       0.206209         5.6112 
  36   0.0000       0.215761         5.8712 
  37   0.0000       0.223131         6.0717 
  38   0.0000       0.237674         6.4674 
  39   0.0000       0.245088         6.6692 
  40   0.0000       0.258414         7.0318 
  41   0.0000       0.283698         7.7198 
  42   0.0000       0.286784         7.8038 
  43   0.0000       0.289214         7.8699 
  44   0.0000       0.316549         8.6137 
  45   0.0000       0.321502         8.7485 
  46   0.0000       0.333349         9.0709 
  47   0.0000       0.372000        10.1226 
  48   0.0000       0.377975        10.2852 
  49   0.0000       0.388297        10.5661 
  50   0.0000       0.424836        11.5604 
  51   0.0000       0.441643        12.0177 
  52   0.0000       0.467333        12.7168 
  53   0.0000       0.476121        12.9559 
  54   0.0000       0.496845        13.5198 
  55   0.0000       0.514946        14.0124 
  56   0.0000       0.518356        14.1052 
  57   0.0000       0.557744        15.1770 
  58   0.0000       0.564651        15.3649 
  59   0.0000       0.569046        15.4845 
  60   0.0000       0.586229        15.9521 
  61   0.0000       0.596521        16.2322 
  62   0.0000       0.609503        16.5854 
  63   0.0000       0.616439        16.7742 
  64   0.0000       0.626701        17.0534 
  65   0.0000       0.643908        17.5216 
  66   0.0000       0.659192        17.9375 
  67   0.0000       0.667162        18.1544 
  68   0.0000       0.699963        19.0470 
  69   0.0000       0.703269        19.1369 
  70   0.0000       0.709366        19.3028 
  71   0.0000       0.723409        19.6850 
  72   0.0000       0.736625        20.0446 
  73   0.0000       0.764754        20.8100 
  74   0.0000       0.773436        21.0463 
  75   0.0000       0.782532        21.2938 
  76   0.0000       0.786672        21.4064 
  77   0.0000       0.817519        22.2458 
  78   0.0000       0.842971        22.9384 
  79   0.0000       0.890881        24.2421 
  80   0.0000       0.901115        24.5206 
  81   0.0000       0.903224        24.5780 
  82   0.0000       0.923107        25.1190 
  83   0.0000       0.951081        25.8802 
  84   0.0000       0.998539        27.1716 
  85   0.0000       1.008831        27.4517 
  86   0.0000       1.037539        28.2329 
  87   0.0000       1.058255        28.7966 
  88   0.0000       1.065666        28.9983 
  89   0.0000       1.095296        29.8045 
  90   0.0000       1.127037        30.6682 
  91   0.0000       1.128582        30.7103 
  92   0.0000       1.133543        30.8453 
  93   0.0000       1.176036        32.0016 
  94   0.0000       1.201456        32.6933 
  95   0.0000       1.230207        33.4756 
  96   0.0000       1.248026        33.9605 
  97   0.0000       1.294926        35.2367 
  98   0.0000       1.321088        35.9486 
  99   0.0000       1.370747        37.2999 
 100   0.0000       1.395176        37.9647 
 101   0.0000       1.503801        40.9205 
 102   0.0000       1.512500        41.1572 
 103   0.0000       1.564934        42.5840 
 104   0.0000       1.604454        43.6594 
 105   0.0000       1.624021        44.1919 
 106   0.0000       1.647626        44.8342 
 107   0.0000       1.671574        45.4859 
 108   0.0000       1.689068        45.9619 
 109   0.0000       1.691087        46.0168 
 110   0.0000       1.723435        46.8971 
 111   0.0000       1.746078        47.5132 
 112   0.0000       1.762336        47.9556 
 113   0.0000       1.767879        48.1064 
 114   0.0000       1.771011        48.1916 
 115   0.0000       1.781847        48.4865 
 116   0.0000       1.803177        49.0669 
 117   0.0000       1.819535        49.5121 
 118   0.0000       1.832535        49.8658 
 119   0.0000       1.857408        50.5426 
 120   0.0000       1.867398        50.8145 
 121   0.0000       1.875139        51.0251 
 122   0.0000       1.955153        53.2024 
 123   0.0000       1.970183        53.6114 
 124   0.0000       1.986686        54.0605 
 125   0.0000       1.993823        54.2547 
 126   0.0000       2.021113        54.9973 
 127   0.0000       2.106621        57.3241 
 128   0.0000       2.112478        57.4835 
 129   0.0000       2.141898        58.2840 
 130   0.0000       2.193407        59.6856 
 131   0.0000       2.212773        60.2126 
 132   0.0000       2.220223        60.4153 
 133   0.0000       2.224937        60.5436 
 134   0.0000       2.232967        60.7621 
 135   0.0000       2.233100        60.7657 
 136   0.0000       2.284831        62.1734 
 137   0.0000       2.311979        62.9122 
 138   0.0000       2.320716        63.1499 
 139   0.0000       2.351411        63.9852 
 140   0.0000       2.416541        65.7574 
 141   0.0000       2.438977        66.3679 
 142   0.0000       2.450409        66.6790 
 143   0.0000       2.521292        68.6078 
 144   0.0000       2.534760        68.9743 
 145   0.0000       2.560458        69.6736 
 146   0.0000       2.568023        69.8795 
 147   0.0000       2.575394        70.0800 
 148   0.0000       2.596371        70.6509 
 149   0.0000       2.600979        70.7762 
 150   0.0000       2.623727        71.3952 
 151   0.0000       2.624721        71.4223 
 152   0.0000       2.658371        72.3379 
 153   0.0000       2.682828        73.0035 
 154   0.0000       2.685167        73.0671 
 155   0.0000       2.746598        74.7387 
 156   0.0000       2.786282        75.8186 
 157   0.0000       2.793091        76.0039 
 158   0.0000       2.820219        76.7421 
 159   0.0000       2.826732        76.9193 
 160   0.0000       2.863137        77.9099 
 161   0.0000       2.873723        78.1980 
 162   0.0000       2.927376        79.6579 
 163   0.0000       2.968997        80.7905 
 164   0.0000       2.996868        81.5489 
 165   0.0000       3.057956        83.2112 
 166   0.0000       3.069455        83.5241 
 167   0.0000       3.076685        83.7208 
 168   0.0000       3.111401        84.6655 
 169   0.0000       3.164388        86.1074 
 170   0.0000       3.192445        86.8708 
 171   0.0000       3.232112        87.9502 
 172   0.0000       3.260237        88.7156 
 173   0.0000       3.284529        89.3766 
 174   0.0000       3.302999        89.8792 
 175   0.0000       3.322266        90.4035 
 176   0.0000       3.328389        90.5701 
 177   0.0000       3.339390        90.8694 
 178   0.0000       3.350148        91.1622 
 179   0.0000       3.360524        91.4445 
 180   0.0000       3.369310        91.6836 
 181   0.0000       3.423238        93.1510 
 182   0.0000       3.429345        93.3172 
 183   0.0000       3.456843        94.0655 
 184   0.0000       3.510258        95.5190 
 185   0.0000       3.523378        95.8760 
 186   0.0000       3.534156        96.1693 
 187   0.0000       3.546667        96.5097 
 188   0.0000       3.551839        96.6504 
 189   0.0000       3.573853        97.2495 
 190   0.0000       3.604813        98.0919 
 191   0.0000       3.612297        98.2956 
 192   0.0000       3.647755        99.2605 
 193   0.0000       3.655606        99.4741 
 194   0.0000       3.670492        99.8792 
 195   0.0000       3.673768        99.9683 
 196   0.0000       3.708326       100.9087 
 197   0.0000       3.762790       102.3907 
 198   0.0000       3.787122       103.0528 
 199   0.0000       3.791829       103.1809 
 200   0.0000       3.792426       103.1972 
 201   0.0000       3.858004       104.9816 
 202   0.0000       3.876051       105.4727 
 203   0.0000       3.911817       106.4460 
 204   0.0000       3.920099       106.6713 
 205   0.0000       3.959353       107.7395 
 206   0.0000       3.987704       108.5109 
 207   0.0000       4.042086       109.9908 
 208   0.0000       4.067296       110.6768 
 209   0.0000       4.088252       111.2470 
 210   0.0000       4.136946       112.5720 
 211   0.0000       4.155608       113.0798 
 212   0.0000       4.220057       114.8336 
 213   0.0000       4.281138       116.4957 
 214   0.0000       4.293163       116.8229 
 215   0.0000       4.360227       118.6478 
 216   0.0000       4.376385       119.0875 
 217   0.0000       4.449016       121.0639 
 218   0.0000       4.458778       121.3295 
 219   0.0000       4.465423       121.5103 
 220   0.0000       4.492356       122.2432 
 221   0.0000       4.632889       126.0673 
 222   0.0000       4.659286       126.7856 
 223   0.0000       4.730066       128.7116 
 224   0.0000       4.779357       130.0529 
 225   0.0000       4.787825       130.2833 
 226   0.0000       4.880061       132.7932 
 227   0.0000       4.890444       133.0758 
 228   0.0000       4.978785       135.4796 
 229   0.0000       5.018276       136.5542 
 230   0.0000       5.121569       139.3650 
 231   0.0000       5.184991       141.0908 
 232   0.0000       5.194904       141.3605 
 233   0.0000       5.227433       142.2457 
 234   0.0000       5.304579       144.3449 
 235   0.0000       5.356092       145.7467 
 236   0.0000       5.363140       145.9385 
 237   0.0000       5.467360       148.7744 
 238   0.0000       5.498363       149.6181 
 239   0.0000       5.502920       149.7421 
 240   0.0000       5.553421       151.1163 
 241   0.0000       5.609183       152.6336 
 242   0.0000       5.656997       153.9347 
 243   0.0000       5.669184       154.2663 
 244   0.0000       5.701663       155.1501 
 245   0.0000       5.733988       156.0297 
 246   0.0000       5.789291       157.5346 
 247   0.0000       5.799818       157.8211 
 248   0.0000       5.909961       160.8182 
 249   0.0000       5.912285       160.8814 
 250   0.0000       5.956957       162.0970 
 251   0.0000       6.022841       163.8898 
 252   0.0000       6.097935       165.9332 
 253   0.0000       6.122316       166.5967 
 254   0.0000       6.187258       168.3639 
 255   0.0000       6.253580       170.1686 
 256   0.0000       6.393378       173.9727 
 257   0.0000       6.406723       174.3358 
 258   0.0000       6.414897       174.5582 
 259   0.0000       6.484388       176.4492 
 260   0.0000       6.699942       182.3147 
 261   0.0000       6.720794       182.8821 
 262   0.0000       6.892718       187.5604 
 263   0.0000       6.898463       187.7167 
 264   0.0000       6.984081       190.0465 
 265   0.0000       7.018753       190.9900 
 266   0.0000       7.169419       195.0898 
 267   0.0000       7.282065       198.1551 
 268   0.0000       7.295248       198.5138 
 269   0.0000       7.330572       199.4750 
 270   0.0000       7.358088       200.2238 
 271   0.0000       7.454370       202.8437 
 272   0.0000       7.663843       208.5438 
 273   0.0000       7.696876       209.4426 
 274   0.0000       7.756003       211.0516 
 275   0.0000       7.910108       215.2450 
 276   0.0000      23.436764       637.7468 
 277   0.0000      23.526810       640.1971 
 278   0.0000      24.189543       658.2309 
 279   0.0000      24.706935       672.3099 
 280   0.0000      33.522067       912.1818 
 281   0.0000      34.089872       927.6326 
 282   0.0000      45.529779      1238.9283 
 283   0.0000      45.670336      1242.7530 

                    ********************************
                    * MULLIKEN POPULATION ANALYSIS *
                    ********************************

-----------------------
MULLIKEN ATOMIC CHARGES
-----------------------
   0 C :   -0.224803
   1 N :   -0.061322
   2 N :   -0.319602
   3 C :    0.378254
   4 C :   -0.345281
   5 O :   -0.333545
   6 C :    0.543329
   7 O :   -0.476984
   8 H :    0.124856
   9 H :    0.124871
  10 H :    0.164022
  11 H :    0.138064
  12 H :    0.138078
  13 H :    0.150065
Sum of atomic charges:    0.0000000

--------------------------------
MULLIKEN REDUCED ORBITAL CHARGES
--------------------------------
  0 C s       :     3.248466  s :     3.248466
      pz      :     1.097174  p :     2.873117
      px      :     1.060572
      py      :     0.715371
      dz2     :     0.016392  d :     0.095748
      dxz     :     0.011741
      dyz     :     0.016889
      dx2y2   :     0.017534
      dxy     :     0.033192
      f0      :     0.001256  f :     0.007471
      f+1     :     0.000167
      f-1     :     0.000994
      f+2     :     0.001165
      f-2     :     0.000113
      f+3     :     0.002099
      f-3     :     0.001678
  1 N s       :     3.390273  s :     3.390273
      pz      :     0.948033  p :     3.554654
      px      :     1.616334
      py      :     0.990287
      dz2     :     0.025640  d :     0.109137
      dxz     :     0.014715
      dyz     :     0.040085
      dx2y2   :     0.014256
      dxy     :     0.014442
      f0      :     0.001238  f :     0.007258
      f+1     :     0.000592
      f-1     :     0.001509
      f+2     :     0.001504
      f-2     :     0.000688
      f+3     :     0.000729
      f-3     :     0.000998
  2 N s       :     3.686946  s :     3.686946
      pz      :     1.260825  p :     3.536746
      px      :     1.233581
      py      :     1.042340
      dz2     :     0.019539  d :     0.089721
      dxz     :     0.013219
      dyz     :     0.025064
      dx2y2   :     0.009954
      dxy     :     0.021944
      f0      :     0.000646  f :     0.006190
      f+1     :     0.000599
      f-1     :     0.001468
      f+2     :     0.001093
      f-2     :     0.000841
      f+3     :     0.000984
      f-3     :     0.000557
  3 C s       :     3.044639  s :     3.044639
      pz      :     0.629753  p :     2.348045
      px      :     0.819207
      py      :     0.899085
      dz2     :     0.047613  d :     0.207272
      dxz     :     0.043231
      dyz     :     0.056541
      dx2y2   :     0.009800
      dxy     :     0.050087
      f0      :     0.003972  f :     0.021789
      f+1     :     0.003547
      f-1     :     0.005438
      f+2     :     0.002250
      f-2     :     0.001174
      f+3     :     0.003496
      f-3     :     0.001911
  4 C s       :     3.266717  s :     3.266717
      pz      :     1.003978  p :     3.011577
      px      :     1.069191
      py      :     0.938408
      dz2     :     0.016252  d :     0.062661
      dxz     :     0.004231
      dyz     :     0.011817
      dx2y2   :     0.007491
      dxy     :     0.022869
      f0      :     0.000999  f :     0.004326
      f+1     :     0.000067
      f-1     :     0.000925
      f+2     :     0.000569
      f-2     :     0.000306
      f+3     :     0.000340
      f-3     :     0.001120
  5 O s       :     3.777358  s :     3.777358
      pz      :     1.306562  p :     4.508640
      px      :     1.735788
      py      :     1.466291
      dz2     :     0.016435  d :     0.045304
      dxz     :     0.005653
      dyz     :     0.009589
      dx2y2   :     0.008977
      dxy     :     0.004650
      f0      :     0.000647  f :     0.002243
      f+1     :     0.000313
      f-1     :     0.000364
      f+2     :     0.000293
      f-2     :     0.000086
      f+3     :     0.000207
      f-3     :     0.000331
  6 C s       :     2.954186  s :     2.954186
      pz      :     0.762815  p :     2.163792
      px      :     0.704607
      py      :     0.696370
      dz2     :     0.050363  d :     0.307598
      dxz     :     0.095144
      dyz     :     0.103823
      dx2y2   :     0.021371
      dxy     :     0.036897
      f0      :     0.006538  f :     0.031096
      f+1     :     0.005440
      f-1     :     0.008425
      f+2     :     0.003078
      f-2     :     0.003720
      f+3     :     0.002594
      f-3     :     0.001301
  7 O s       :     3.832473  s :     3.832473
      pz      :     1.343151  p :     4.605837
      px      :     1.525465
      py      :     1.737221
      dz2     :     0.014344  d :     0.036406
      dxz     :     0.011826
      dyz     :     0.009041
      dx2y2   :     0.000468
      dxy     :     0.000727
      f0      :     0.000788  f :     0.002268
      f+1     :     0.000628
      f-1     :     0.000634
      f+2     :     0.000090
      f-2     :     0.000125
      f+3     :     0.000000
      f-3     :     0.000002
  8 H s       :     0.853620  s :     0.853620
      pz      :     0.005603  p :     0.021524
      px      :     0.011799
      py      :     0.004121
  9 H s       :     0.853605  s :     0.853605
      pz      :     0.006640  p :     0.021524
      px      :     0.010582
      py      :     0.004303
 10 H s       :     0.813779  s :     0.813779
      pz      :     0.014395  p :     0.022199
      px      :     0.003583
      py      :     0.004221
 11 H s       :     0.839781  s :     0.839781
      pz      :     0.003999  p :     0.022155
      px      :     0.010588
      py      :     0.007568
 12 H s       :     0.839768  s :     0.839768
      pz      :     0.003640  p :     0.022155
      px      :     0.011194
      py      :     0.007321
 13 H s       :     0.827614  s :     0.827614
      pz      :     0.014740  p :     0.022321
      px      :     0.003724
      py      :     0.003857


                     *******************************
                     * LOEWDIN POPULATION ANALYSIS *
                     *******************************

----------------------
LOEWDIN ATOMIC CHARGES
----------------------
   0 C :   -0.245667
   1 N :    0.117708
   2 N :    0.048834
   3 C :   -0.324322
   4 C :   -0.223422
   5 O :    0.264124
   6 C :   -0.425436
   7 O :    0.028954
   8 H :    0.112771
   9 H :    0.112776
  10 H :    0.130661
  11 H :    0.133048
  12 H :    0.133046
  13 H :    0.136924

-------------------------------
LOEWDIN REDUCED ORBITAL CHARGES
-------------------------------
  0 C s       :     2.829935  s :     2.829935
      pz      :     1.089511  p :     3.031480
      px      :     1.081499
      py      :     0.860471
      dz2     :     0.050527  d :     0.342190
      dxz     :     0.035706
      dyz     :     0.060266
      dx2y2   :     0.078492
      dxy     :     0.117198
      f0      :     0.005033  f :     0.042062
      f+1     :     0.001010
      f-1     :     0.006312
      f+2     :     0.005700
      f-2     :     0.002354
      f+3     :     0.013272
      f-3     :     0.008381
  1 N s       :     2.886942  s :     2.886942
      pz      :     1.080429  p :     3.619455
      px      :     1.410361
      py      :     1.128665
      dz2     :     0.094688  d :     0.348472
      dxz     :     0.044455
      dyz     :     0.123197
      dx2y2   :     0.043293
      dxy     :     0.042838
      f0      :     0.006814  f :     0.027423
      f+1     :     0.001825
      f-1     :     0.004523
      f+2     :     0.006024
      f-2     :     0.003744
      f+3     :     0.002570
      f-3     :     0.001923
  2 N s       :     3.108009  s :     3.108009
      pz      :     1.282858  p :     3.562759
      px      :     1.134760
      py      :     1.145141
      dz2     :     0.046152  d :     0.252792
      dxz     :     0.030429
      dyz     :     0.084633
      dx2y2   :     0.038773
      dxy     :     0.052804
      f0      :     0.004395  f :     0.027606
      f+1     :     0.002504
      f-1     :     0.008117
      f+2     :     0.004105
      f-2     :     0.004799
      f+3     :     0.001601
      f-3     :     0.002086
  3 C s       :     2.740302  s :     2.740302
      pz      :     0.838907  p :     2.668320
      px      :     0.785256
      py      :     1.044158
      dz2     :     0.201314  d :     0.790278
      dxz     :     0.123941
      dyz     :     0.247455
      dx2y2   :     0.090896
      dxy     :     0.126671
      f0      :     0.025197  f :     0.125422
      f+1     :     0.020908
      f-1     :     0.038314
      f+2     :     0.011827
      f-2     :     0.008152
      f+3     :     0.011643
      f-3     :     0.009380
  4 C s       :     2.816725  s :     2.816725
      pz      :     1.045604  p :     3.130201
      px      :     1.062205
      py      :     1.022392
      dz2     :     0.070043  d :     0.251806
      dxz     :     0.012139
      dyz     :     0.052495
      dx2y2   :     0.031367
      dxy     :     0.085763
      f0      :     0.002961  f :     0.024689
      f+1     :     0.001536
      f-1     :     0.004461
      f+2     :     0.005155
      f-2     :     0.003766
      f+3     :     0.002258
      f-3     :     0.004552
  5 O s       :     3.255482  s :     3.255482
      pz      :     1.342551  p :     4.370789
      px      :     1.579427
      py      :     1.448810
      dz2     :     0.036272  d :     0.102453
      dxz     :     0.015153
      dyz     :     0.027936
      dx2y2   :     0.015898
      dxy     :     0.007193
      f0      :     0.001610  f :     0.007152
      f+1     :     0.001040
      f-1     :     0.002290
      f+2     :     0.000790
      f-2     :     0.000268
      f+3     :     0.000440
      f-3     :     0.000714
  6 C s       :     2.719443  s :     2.719443
      pz      :     0.971943  p :     2.496131
      px      :     0.711006
      py      :     0.813182
      dz2     :     0.250498  d :     1.036543
      dxz     :     0.236724
      dyz     :     0.338915
      dx2y2   :     0.102221
      dxy     :     0.108185
      f0      :     0.036973  f :     0.173319
      f+1     :     0.023872
      f-1     :     0.048173
      f+2     :     0.019634
      f-2     :     0.023014
      f+3     :     0.011448
      f-3     :     0.010205
  7 O s       :     3.400783  s :     3.400783
      pz      :     1.478352  p :     4.498706
      px      :     1.418696
      py      :     1.601658
      dz2     :     0.032723  d :     0.065724
      dxz     :     0.014511
      dyz     :     0.016611
      dx2y2   :     0.000996
      dxy     :     0.000884
      f0      :     0.002418  f :     0.005833
      f+1     :     0.001126
      f-1     :     0.001816
      f+2     :     0.000252
      f-2     :     0.000207
      f+3     :     0.000007
      f-3     :     0.000007
  8 H s       :     0.827032  s :     0.827032
      pz      :     0.017169  p :     0.060197
      px      :     0.031735
      py      :     0.011293
  9 H s       :     0.827026  s :     0.827026
      pz      :     0.019588  p :     0.060198
      px      :     0.028928
      py      :     0.011682
 10 H s       :     0.807181  s :     0.807181
      pz      :     0.038464  p :     0.062158
      px      :     0.012502
      py      :     0.011192
 11 H s       :     0.806336  s :     0.806336
      pz      :     0.013467  p :     0.060616
      px      :     0.028187
      py      :     0.018961
 12 H s       :     0.806337  s :     0.806337
      pz      :     0.012471  p :     0.060617
      px      :     0.029705
      py      :     0.018441
 13 H s       :     0.802218  s :     0.802218
      pz      :     0.035876  p :     0.060858
      px      :     0.012309
      py      :     0.012672


                      *****************************
                      * MAYER POPULATION ANALYSIS *
                      *****************************

  NA   - Mulliken gross atomic population
  ZA   - Total nuclear charge
  QA   - Mulliken gross atomic charge
  VA   - Mayer's total valence
  BVA  - Mayer's bonded valence
  FA   - Mayer's free valence

  ATOM       NA         ZA         QA         VA         BVA        FA
  0 C      6.2248     6.0000    -0.2248     3.8445     3.8445    -0.0000
  1 N      7.0613     7.0000    -0.0613     2.9649     2.9649     0.0000
  2 N      7.3196     7.0000    -0.3196     2.8308     2.8308     0.0000
  3 C      5.6217     6.0000     0.3783     3.8819     3.8819     0.0000
  4 C      6.3453     6.0000    -0.3453     3.8942     3.8942     0.0000
  5 O      8.3335     8.0000    -0.3335     2.0602     2.0602    -0.0000
  6 C      5.4567     6.0000     0.5433     4.3303     4.3303    -0.0000
  7 O      8.4770     8.0000    -0.4770     2.0264     2.0264    -0.0000
  8 H      0.8751     1.0000     0.1249     0.9646     0.9646    -0.0000
  9 H      0.8751     1.0000     0.1249     0.9646     0.9646    -0.0000
 10 H      0.8360     1.0000     0.1640     0.9658     0.9658    -0.0000
 11 H      0.8619     1.0000     0.1381     0.9636     0.9636     0.0000
 12 H      0.8619     1.0000     0.1381     0.9636     0.9636    -0.0000
 13 H      0.8499     1.0000     0.1501     0.9717     0.9717     0.0000

  Mayer bond orders larger than 0.1
B(  0-C ,  1-N ) :   0.8921 B(  0-C ,  8-H ) :   0.9812 B(  0-C ,  9-H ) :   0.9812 
B(  0-C , 10-H ) :   0.9717 B(  1-N ,  2-N ) :   0.8662 B(  1-N ,  6-C ) :   1.2466 
B(  2-N ,  3-C ) :   1.8802 B(  3-C ,  4-C ) :   0.9386 B(  3-C ,  5-O ) :   1.0629 
B(  4-C , 11-H ) :   0.9686 B(  4-C , 12-H ) :   0.9687 B(  4-C , 13-H ) :   0.9955 
B(  5-O ,  6-C ) :   1.0267 B(  6-C ,  7-O ) :   2.0028 

-------
TIMINGS
-------

Total SCF time: 0 days 0 hours 1 min 31 sec 

Total time                  ....      91.718 sec
Sum of individual times     ....      94.497 sec  (103.0%)

Fock matrix formation       ....      90.519 sec  ( 98.7%)
Diagonalization             ....       0.545 sec  (  0.6%)
Density matrix formation    ....       0.036 sec  (  0.0%)
Population analysis         ....       0.097 sec  (  0.1%)
Initial guess               ....       1.927 sec  (  2.1%)
Orbital Transformation      ....       0.000 sec  (  0.0%)
Orbital Orthonormalization  ....       0.000 sec  (  0.0%)
DIIS solution               ....       0.164 sec  (  0.2%)
SOSCF solution              ....       0.250 sec  (  0.3%)

   <<< Auxbasis replaced with dsgdb9nsd_021037.AUXC.tmp (Dim=698) >>> 


------------------------------------------------------------------------------
                              ORCA MP2 CALCULATION
------------------------------------------------------------------------------

Freezing NCore=16 chemical core electrons

   <<< Use J-auxbasis for calculation of Separable RI-J derivative contributions dsgdb9nsd_021037.AUXJ.tmp (Dim=716) >>> 


---------------------
RI-MP2 ENERGY+DENSITY
---------------------
Dimension of the basis                    ...  284
Memory devoted to MP2                     ... 2000 MB   
Data format for buffers                   ... DOUBLE
Compression type for matrix containers    ... UNCOMPRESSED
Overall scaling of the MP2 energy         ...   1.000e+00 Eh
Calculating two index integrals           ... done (    0.014 sec)
Cholesky decomposition of V**-1           ... done (    0.071 sec)

-----------------
RI-TRANSFORMATION (AUX index driven)
-----------------

Dimension of the orbital-basis         ... 284
Dimension of the aux-basis             ... 698
Transformation of internal MOs         ...    0-  29
Transformation of internal/external MOs...    0-  29 to   30- 283
Number Format for Storage              ... Double (8 Byte)
Integral mode                          ... Direct

First Phase: integral generation and transformation of MO indices
  Aux angular momentum 0               ... done (    0.422 sec)
  Aux angular momentum 1               ... done (    0.565 sec)
  Aux angular momentum 2               ... done (    0.616 sec)
  Aux angular momentum 3               ... done (    0.504 sec)
  Aux angular momentum 4               ... done (    0.234 sec)
Closing buffer VIJ ( 0.00 GB; CompressionRatio= 1.93)
Closing buffer VIA ( 0.04 GB; CompressionRatio= 1.00)
  Phase 1 completed in     2.439 sec
Second Phase: sorting and transformation of aux index

IJ-Transformation
Memory available                       ... 1991 MB 
Max. # MO pairs treated in a batch     ... 30    
# of internal orbitals                 ... 30
# batches for internal orbitals        ... 1
Closing buffer IJV ( 0.00 GB; CompressionRatio= 1.00)
(ij|v) transformation done in     0.104 sec

IA-Transformation
Memory available                       ... 1991 MB 
Max. # MO pairs treated in a batch     ... 30    
# of internal orbitals                 ... 30
# batches for internal orbitals        ... 1
Closing buffer IAV ( 0.04 GB; CompressionRatio= 1.00)
(ia|v) transformation done in     0.767 sec

  Phase 2 completed in     0.884 sec
RI-Integral transformation completed in     3.323 sec
Opening buffers                              ... done
Frozen core precalculation                   ... done

Starting loop over batches of integrals:

Operator 0  - window                       ... (  8- 29)x( 30-283)
Operator 0  - Memory available             ...  2000 MB
Operator 0  - Memory needed per MO         ...   2.7 MB
Operator 0  - Number of orbitals per batch ... 22
Operator 0  - Number of batches            ... 1

OPERATOR  0   PASS   0:  MOs     8 ...   29
  Reading integrals       ... ok
  Internal MO  10
  Internal MO  13
  Internal MO  16
  Internal MO  19
  Internal MO  22
  Internal MO  25
  Internal MO  28
Time spent in pair loops =    23.632 sec
Deleting buffer (Ka|jb)[aa] ...done

-----------------------------------------------
 RI-MP2 CORRELATION ENERGY:     -1.490938676 Eh
-----------------------------------------------


---------------------
MP2 DENSITY FORMATION
---------------------

Completing the external part of the density      ... done
Storing the unrelaxed density                    ... done

Calculating G(D)                                 ... done
Completing the Lagrangian                        ... done
Solving the Z-vector equations                   ... 

------------------------------------------------------------------------------
                           ORCA CP-SCF CALCULATION
------------------------------------------------------------------------------

Input orbitals are from        ... dsgdb9nsd_021037.gbw
Input Perturbation             ... dsgdb9nsd_021037.pin.tmp
Wavefunction output            ... dsgdb9nsd_021037.pout.tmp
Perturbation mode              ... Real perturbation
Solver                         ... POPLE
Max. number of iterations      ... 128
Convergence tolerance          ... 1.000e-08
Integral handling              ... Direct
Number of perturbations        ... 1
Number of operators            ... 1
Orbital ranges used for CP-SCF:
 Operator 0:  Orbitals   0... 29  to  30...283
Variables per vector in CP-SCF ... 7620
Number of vectors sought       ... 1
     CP-SCF ITERATION   0: 
     CP-SCF ITERATION   1:      0.003143284
     CP-SCF ITERATION   2:      0.000799274
     CP-SCF ITERATION   3:      0.000048701
     CP-SCF ITERATION   4:      0.000012418
     CP-SCF ITERATION   5:      0.000000864
     CP-SCF ITERATION   6:      0.000000086
     CP-SCF ITERATION   7:      0.000000014
     CP-SCF ITERATION   8:      0.000000002
done
Finalizing the relaxed density                   ... done
Transforming P to the AO basis                   ... done
Storing the relaxed density                      ... done

                *********************************************
                * UNRELAXED MP2 DENSITY POPULATION ANALYSIS *
                *********************************************

------------------------------------------------------------------------------
                           ORCA POPULATION ANALYSIS
------------------------------------------------------------------------------
Input electron density              ... dsgdb9nsd_021037.pmp2ur
BaseName (.gbw .S,...)              ... dsgdb9nsd_021037

                    ********************************
                    * MULLIKEN POPULATION ANALYSIS *
                    ********************************

-----------------------
MULLIKEN ATOMIC CHARGES
-----------------------
   0 C :   -0.234656
   1 N :   -0.052932
   2 N :   -0.306906
   3 C :    0.354413
   4 C :   -0.353977
   5 O :   -0.312205
   6 C :    0.502811
   7 O :   -0.452792
   8 H :    0.127786
   9 H :    0.127800
  10 H :    0.166085
  11 H :    0.140868
  12 H :    0.140882
  13 H :    0.152822
Sum of atomic charges:    0.0000000

--------------------------------
MULLIKEN REDUCED ORBITAL CHARGES
--------------------------------
  0 C s       :     3.245743  s :     3.245743
      pz      :     1.090157  p :     2.860427
      px      :     1.054911
      py      :     0.715359
      dz2     :     0.020913  d :     0.117539
      dxz     :     0.017015
      dyz     :     0.021539
      dx2y2   :     0.020740
      dxy     :     0.037333
      f0      :     0.001742  f :     0.010946
      f+1     :     0.000746
      f-1     :     0.001446
      f+2     :     0.001664
      f-2     :     0.000633
      f+3     :     0.002610
      f-3     :     0.002106
  1 N s       :     3.386600  s :     3.386600
      pz      :     0.941332  p :     3.514754
      px      :     1.593208
      py      :     0.980214
      dz2     :     0.031792  d :     0.140798
      dxz     :     0.021484
      dyz     :     0.044831
      dx2y2   :     0.021268
      dxy     :     0.021423
      f0      :     0.001778  f :     0.010781
      f+1     :     0.001073
      f-1     :     0.002037
      f+2     :     0.001994
      f-2     :     0.001224
      f+3     :     0.001224
      f-3     :     0.001452
  2 N s       :     3.678143  s :     3.678143
      pz      :     1.248422  p :     3.505242
      px      :     1.220676
      py      :     1.036145
      dz2     :     0.024277  d :     0.114191
      dxz     :     0.018560
      dyz     :     0.029301
      dx2y2   :     0.015191
      dxy     :     0.026862
      f0      :     0.001123  f :     0.009330
      f+1     :     0.001028
      f-1     :     0.001971
      f+2     :     0.001523
      f-2     :     0.001313
      f+3     :     0.001398
      f-3     :     0.000974
  3 C s       :     3.046261  s :     3.046261
      pz      :     0.631944  p :     2.351514
      px      :     0.825536
      py      :     0.894034
      dz2     :     0.049660  d :     0.222487
      dxz     :     0.047004
      dyz     :     0.059911
      dx2y2   :     0.012853
      dxy     :     0.053058
      f0      :     0.004379  f :     0.025324
      f+1     :     0.003947
      f-1     :     0.006244
      f+2     :     0.002747
      f-2     :     0.001809
      f+3     :     0.003855
      f-3     :     0.002343
  4 C s       :     3.264574  s :     3.264574
      pz      :     0.997895  p :     2.992982
      px      :     1.062548
      py      :     0.932538
      dz2     :     0.021413  d :     0.088347
      dxz     :     0.010347
      dyz     :     0.015940
      dx2y2   :     0.012578
      dxy     :     0.028069
      f0      :     0.001488  f :     0.008075
      f+1     :     0.000615
      f-1     :     0.001507
      f+2     :     0.001015
      f-2     :     0.000904
      f+3     :     0.000938
      f-3     :     0.001609
  5 O s       :     3.771770  s :     3.771770
      pz      :     1.293727  p :     4.461017
      px      :     1.716171
      py      :     1.451119
      dz2     :     0.021830  d :     0.074323
      dxz     :     0.011725
      dyz     :     0.015529
      dx2y2   :     0.014582
      dxy     :     0.010656
      f0      :     0.001063  f :     0.005095
      f+1     :     0.000725
      f-1     :     0.000806
      f+2     :     0.000687
      f-2     :     0.000485
      f+3     :     0.000609
      f-3     :     0.000720
  6 C s       :     2.958166  s :     2.958166
      pz      :     0.762788  p :     2.186372
      px      :     0.720797
      py      :     0.702788
      dz2     :     0.052069  d :     0.318461
      dxz     :     0.096824
      dyz     :     0.105396
      dx2y2   :     0.023983
      dxy     :     0.040188
      f0      :     0.007111  f :     0.034190
      f+1     :     0.005748
      f-1     :     0.009027
      f+2     :     0.003584
      f-2     :     0.004259
      f+3     :     0.002888
      f-3     :     0.001573
  7 O s       :     3.826601  s :     3.826601
      pz      :     1.331826  p :     4.558344
      px      :     1.507613
      py      :     1.718905
      dz2     :     0.019078  d :     0.062909
      dxz     :     0.017005
      dyz     :     0.014536
      dx2y2   :     0.005998
      dxy     :     0.006292
      f0      :     0.001195  f :     0.004937
      f+1     :     0.001039
      f-1     :     0.001046
      f+2     :     0.000473
      f-2     :     0.000509
      f+3     :     0.000337
      f-3     :     0.000339
  8 H s       :     0.847633  s :     0.847633
      pz      :     0.006650  p :     0.024580
      px      :     0.012686
      py      :     0.005245
  9 H s       :     0.847619  s :     0.847619
      pz      :     0.007659  p :     0.024581
      px      :     0.011500
      py      :     0.005422
 10 H s       :     0.808810  s :     0.808810
      pz      :     0.015149  p :     0.025105
      px      :     0.004647
      py      :     0.005309
 11 H s       :     0.834073  s :     0.834073
      pz      :     0.005065  p :     0.025059
      px      :     0.011478
      py      :     0.008515
 12 H s       :     0.834060  s :     0.834060
      pz      :     0.004713  p :     0.025058
      px      :     0.012071
      py      :     0.008275
 13 H s       :     0.821989  s :     0.821989
      pz      :     0.015488  p :     0.025189
      px      :     0.004781
      py      :     0.004921


                     *******************************
                     * LOEWDIN POPULATION ANALYSIS *
                     *******************************

----------------------
LOEWDIN ATOMIC CHARGES
----------------------
   0 C :   -0.252091
   1 N :    0.121326
   2 N :    0.053465
   3 C :   -0.334658
   4 C :   -0.230806
   5 O :    0.275329
   6 C :   -0.446233
   7 O :    0.043754
   8 H :    0.114649
   9 H :    0.114654
  10 H :    0.132333
  11 H :    0.134783
  12 H :    0.134781
  13 H :    0.138713

-------------------------------
LOEWDIN REDUCED ORBITAL CHARGES
-------------------------------
  0 C s       :     2.828497  s :     2.828497
      pz      :     1.081669  p :     3.012012
      px      :     1.074281
      py      :     0.856062
      dz2     :     0.055908  d :     0.364314
      dxz     :     0.041180
      dyz     :     0.064581
      dx2y2   :     0.082928
      dxy     :     0.119717
      f0      :     0.005815  f :     0.047268
      f+1     :     0.001641
      f-1     :     0.007177
      f+2     :     0.006435
      f-2     :     0.003054
      f+3     :     0.013758
      f-3     :     0.009387
  1 N s       :     2.886291  s :     2.886291
      pz      :     1.071255  p :     3.580328
      px      :     1.391711
      py      :     1.117362
      dz2     :     0.100549  d :     0.379480
      dxz     :     0.050595
      dyz     :     0.128307
      dx2y2   :     0.051025
      dxy     :     0.049004
      f0      :     0.007458  f :     0.032575
      f+1     :     0.002450
      f-1     :     0.005812
      f+2     :     0.006731
      f-2     :     0.004370
      f+3     :     0.003174
      f-3     :     0.002580
  2 N s       :     3.103470  s :     3.103470
      pz      :     1.270044  p :     3.529066
      px      :     1.123832
      py      :     1.135190
      dz2     :     0.051907  d :     0.281850
      dxz     :     0.035944
      dyz     :     0.090773
      dx2y2   :     0.045170
      dxy     :     0.058056
      f0      :     0.005007  f :     0.032149
      f+1     :     0.002936
      f-1     :     0.008974
      f+2     :     0.004862
      f-2     :     0.005284
      f+3     :     0.002344
      f-3     :     0.002741
  3 C s       :     2.739140  s :     2.739140
      pz      :     0.836763  p :     2.661346
      px      :     0.789411
      py      :     1.035172
      dz2     :     0.203355  d :     0.802193
      dxz     :     0.125896
      dyz     :     0.248474
      dx2y2   :     0.096148
      dxy     :     0.128320
      f0      :     0.026715  f :     0.131979
      f+1     :     0.021128
      f-1     :     0.039098
      f+2     :     0.013051
      f-2     :     0.008964
      f+3     :     0.012653
      f-3     :     0.010370
  4 C s       :     2.815034  s :     2.815034
      pz      :     1.037513  p :     3.105548
      px      :     1.054183
      py      :     1.013852
      dz2     :     0.075406  d :     0.279907
      dxz     :     0.017991
      dyz     :     0.058018
      dx2y2   :     0.037014
      dxy     :     0.091478
      f0      :     0.003823  f :     0.030316
      f+1     :     0.002198
      f-1     :     0.005344
      f+2     :     0.005915
      f-2     :     0.004574
      f+3     :     0.003007
      f-3     :     0.005457
  5 O s       :     3.253059  s :     3.253059
      pz      :     1.329823  p :     4.327253
      px      :     1.562757
      py      :     1.434672
      dz2     :     0.042940  d :     0.133861
      dxz     :     0.021174
      dyz     :     0.033931
      dx2y2   :     0.022410
      dxy     :     0.013406
      f0      :     0.002215  f :     0.010498
      f+1     :     0.001502
      f-1     :     0.002786
      f+2     :     0.001255
      f-2     :     0.000683
      f+3     :     0.000882
      f-3     :     0.001175
  6 C s       :     2.720353  s :     2.720353
      pz      :     0.967758  p :     2.505901
      px      :     0.723533
      py      :     0.814610
      dz2     :     0.252568  d :     1.040059
      dxz     :     0.234379
      dyz     :     0.337478
      dx2y2   :     0.105483
      dxy     :     0.110151
      f0      :     0.038461  f :     0.179920
      f+1     :     0.024843
      f-1     :     0.049759
      f+2     :     0.020837
      f-2     :     0.023345
      f+3     :     0.011811
      f-3     :     0.010864
  7 O s       :     3.396670  s :     3.396670
      pz      :     1.465019  p :     4.454117
      px      :     1.403180
      py      :     1.585918
      dz2     :     0.039273  d :     0.096224
      dxz     :     0.020965
      dyz     :     0.022985
      dx2y2   :     0.006543
      dxy     :     0.006458
      f0      :     0.003101  f :     0.009234
      f+1     :     0.001716
      f-1     :     0.002430
      f+2     :     0.000668
      f-2     :     0.000626
      f+3     :     0.000346
      f-3     :     0.000347
  8 H s       :     0.820117  s :     0.820117
      pz      :     0.018606  p :     0.065233
      px      :     0.033795
      py      :     0.012832
  9 H s       :     0.820112  s :     0.820112
      pz      :     0.021134  p :     0.065234
      px      :     0.030860
      py      :     0.013240
 10 H s       :     0.800626  s :     0.800626
      pz      :     0.040650  p :     0.067040
      px      :     0.013700
      py      :     0.012690
 11 H s       :     0.799704  s :     0.799704
      pz      :     0.014769  p :     0.065513
      px      :     0.030112
      py      :     0.020632
 12 H s       :     0.799705  s :     0.799705
      pz      :     0.013731  p :     0.065514
      px      :     0.031697
      py      :     0.020086
 13 H s       :     0.795561  s :     0.795561
      pz      :     0.038218  p :     0.065726
      px      :     0.013522
      py      :     0.013986


                      *****************************
                      * MAYER POPULATION ANALYSIS *
                      *****************************

  NA   - Mulliken gross atomic population
  ZA   - Total nuclear charge
  QA   - Mulliken gross atomic charge
  VA   - Mayer's total valence
  BVA  - Mayer's bonded valence
  FA   - Mayer's free valence

  ATOM       NA         ZA         QA         VA         BVA        FA
  0 C      6.2347     6.0000    -0.2347     3.9567     3.6740     0.2828
  1 N      7.0529     7.0000    -0.0529     3.1733     2.7417     0.4316
  2 N      7.3069     7.0000    -0.3069     3.0396     2.5883     0.4513
  3 C      5.6456     6.0000     0.3544     3.9637     3.5921     0.3716
  4 C      6.3540     6.0000    -0.3540     4.0146     3.7223     0.2923
  5 O      8.3122     8.0000    -0.3122     2.3421     1.9077     0.4343
  6 C      5.4972     6.0000     0.5028     4.3913     4.0399     0.3513
  7 O      8.4528     8.0000    -0.4528     2.3276     1.8795     0.4481
  8 H      0.8722     1.0000     0.1278     0.9732     0.9252     0.0480
  9 H      0.8722     1.0000     0.1278     0.9732     0.9252     0.0480
 10 H      0.8339     1.0000     0.1661     0.9739     0.9265     0.0474
 11 H      0.8591     1.0000     0.1409     0.9717     0.9230     0.0487
 12 H      0.8591     1.0000     0.1409     0.9717     0.9230     0.0487
 13 H      0.8472     1.0000     0.1528     0.9793     0.9318     0.0474

  Mayer bond orders larger than 0.1
B(  0-C ,  1-N ) :   0.8398 B(  0-C ,  8-H ) :   0.9436 B(  0-C ,  9-H ) :   0.9436 
B(  0-C , 10-H ) :   0.9342 B(  1-N ,  2-N ) :   0.7988 B(  1-N ,  6-C ) :   1.1655 
B(  2-N ,  3-C ) :   1.7263 B(  3-C ,  4-C ) :   0.8867 B(  3-C ,  5-O ) :   0.9948 
B(  4-C , 11-H ) :   0.9307 B(  4-C , 12-H ) :   0.9307 B(  4-C , 13-H ) :   0.9570 
B(  5-O ,  6-C ) :   0.9585 B(  6-C ,  7-O ) :   1.8733 


                *******************************************
                * RELAXED MP2 DENSITY POPULATION ANALYSIS *
                *******************************************

------------------------------------------------------------------------------
                           ORCA POPULATION ANALYSIS
------------------------------------------------------------------------------
Input electron density              ... dsgdb9nsd_021037.pmp2re
BaseName (.gbw .S,...)              ... dsgdb9nsd_021037

                    ********************************
                    * MULLIKEN POPULATION ANALYSIS *
                    ********************************

-----------------------
MULLIKEN ATOMIC CHARGES
-----------------------
   0 C :   -0.306850
   1 N :    0.003890
   2 N :   -0.233782
   3 C :    0.243784
   4 C :   -0.413464
   5 O :   -0.216520
   6 C :    0.301260
   7 O :   -0.335294
   8 H :    0.150299
   9 H :    0.150310
  10 H :    0.177056
  11 H :    0.157427
  12 H :    0.157439
  13 H :    0.164445
Sum of atomic charges:    0.0000000

--------------------------------
MULLIKEN REDUCED ORBITAL CHARGES
--------------------------------
  0 C s       :     3.260829  s :     3.260829
      pz      :     1.108084  p :     2.931825
      px      :     1.084136
      py      :     0.739605
      dz2     :     0.017227  d :     0.103868
      dxz     :     0.014072
      dyz     :     0.020211
      dx2y2   :     0.017494
      dxy     :     0.034865
      f0      :     0.001647  f :     0.010328
      f+1     :     0.000728
      f-1     :     0.001347
      f+2     :     0.001606
      f-2     :     0.000603
      f+3     :     0.002419
      f-3     :     0.001978
  1 N s       :     3.386693  s :     3.386693
      pz      :     0.955293  p :     3.458559
      px      :     1.525088
      py      :     0.978178
      dz2     :     0.032338  d :     0.140383
      dxz     :     0.022495
      dyz     :     0.041218
      dx2y2   :     0.021325
      dxy     :     0.023007
      f0      :     0.001826  f :     0.010475
      f+1     :     0.001097
      f-1     :     0.001779
      f+2     :     0.001917
      f-2     :     0.001254
      f+3     :     0.001235
      f-3     :     0.001365
  2 N s       :     3.655523  s :     3.655523
      pz      :     1.230657  p :     3.463114
      px      :     1.191451
      py      :     1.041006
      dz2     :     0.022853  d :     0.106212
      dxz     :     0.019122
      dyz     :     0.026166
      dx2y2   :     0.014401
      dxy     :     0.023671
      f0      :     0.001075  f :     0.008932
      f+1     :     0.001004
      f-1     :     0.001886
      f+2     :     0.001436
      f-2     :     0.001293
      f+3     :     0.001312
      f-3     :     0.000927
  3 C s       :     3.073972  s :     3.073972
      pz      :     0.651142  p :     2.446375
      px      :     0.918748
      py      :     0.876485
      dz2     :     0.047541  d :     0.212013
      dxz     :     0.045869
      dyz     :     0.059816
      dx2y2   :     0.013293
      dxy     :     0.045494
      f0      :     0.004124  f :     0.023855
      f+1     :     0.003676
      f-1     :     0.006042
      f+2     :     0.002604
      f-2     :     0.001642
      f+3     :     0.003462
      f-3     :     0.002305
  4 C s       :     3.280454  s :     3.280454
      pz      :     1.017168  p :     3.046996
      px      :     1.077437
      py      :     0.952391
      dz2     :     0.018178  d :     0.078257
      dxz     :     0.009777
      dyz     :     0.012657
      dx2y2   :     0.010988
      dxy     :     0.026657
      f0      :     0.001375  f :     0.007758
      f+1     :     0.000605
      f-1     :     0.001468
      f+2     :     0.000861
      f-2     :     0.000964
      f+3     :     0.000976
      f-3     :     0.001507
  5 O s       :     3.764627  s :     3.764627
      pz      :     1.288115  p :     4.374291
      px      :     1.646455
      py      :     1.439722
      dz2     :     0.019432  d :     0.072569
      dxz     :     0.012726
      dyz     :     0.015576
      dx2y2   :     0.013559
      dxy     :     0.011275
      f0      :     0.000979  f :     0.005034
      f+1     :     0.000762
      f-1     :     0.000820
      f+2     :     0.000662
      f-2     :     0.000495
      f+3     :     0.000633
      f-3     :     0.000684
  6 C s       :     2.977311  s :     2.977311
      pz      :     0.775354  p :     2.382874
      px      :     0.859699
      py      :     0.747821
      dz2     :     0.054999  d :     0.306666
      dxz     :     0.087708
      dyz     :     0.100657
      dx2y2   :     0.024547
      dxy     :     0.038755
      f0      :     0.006966  f :     0.031889
      f+1     :     0.005016
      f-1     :     0.008549
      f+2     :     0.003411
      f-2     :     0.003690
      f+3     :     0.002657
      f-3     :     0.001600
  7 O s       :     3.800368  s :     3.800368
      pz      :     1.340873  p :     4.470117
      px      :     1.465489
      py      :     1.663754
      dz2     :     0.017205  d :     0.060001
      dxz     :     0.016074
      dyz     :     0.014433
      dx2y2   :     0.006051
      dxy     :     0.006238
      f0      :     0.001116  f :     0.004807
      f+1     :     0.001022
      f-1     :     0.001012
      f+2     :     0.000475
      f-2     :     0.000505
      f+3     :     0.000338
      f-3     :     0.000339
  8 H s       :     0.826134  s :     0.826134
      pz      :     0.006614  p :     0.023566
      px      :     0.011657
      py      :     0.005296
  9 H s       :     0.826123  s :     0.826123
      pz      :     0.007465  p :     0.023567
      px      :     0.010655
      py      :     0.005447
 10 H s       :     0.798856  s :     0.798856
      pz      :     0.013813  p :     0.024089
      px      :     0.004909
      py      :     0.005366
 11 H s       :     0.818628  s :     0.818628
      pz      :     0.005246  p :     0.023945
      px      :     0.010607
      py      :     0.008092
 12 H s       :     0.818617  s :     0.818617
      pz      :     0.004947  p :     0.023944
      px      :     0.011104
      py      :     0.007893
 13 H s       :     0.811490  s :     0.811490
      pz      :     0.013953  p :     0.024065
      px      :     0.005003
      py      :     0.005109


                     *******************************
                     * LOEWDIN POPULATION ANALYSIS *
                     *******************************

----------------------
LOEWDIN ATOMIC CHARGES
----------------------
   0 C :   -0.276631
   1 N :    0.143836
   2 N :    0.078599
   3 C :   -0.385572
   4 C :   -0.262205
   5 O :    0.317480
   6 C :   -0.530155
   7 O :    0.097185
   8 H :    0.124445
   9 H :    0.124449
  10 H :    0.139559
  11 H :    0.141809
  12 H :    0.141808
  13 H :    0.145392

-------------------------------
LOEWDIN REDUCED ORBITAL CHARGES
-------------------------------
  0 C s       :     2.835095  s :     2.835095
      pz      :     1.095099  p :     3.051869
      px      :     1.090854
      py      :     0.865916
      dz2     :     0.051956  d :     0.343908
      dxz     :     0.037142
      dyz     :     0.064051
      dx2y2   :     0.077584
      dxy     :     0.113175
      f0      :     0.005777  f :     0.045759
      f+1     :     0.001559
      f-1     :     0.006991
      f+2     :     0.006476
      f-2     :     0.002996
      f+3     :     0.012721
      f-3     :     0.009239
  1 N s       :     2.896828  s :     2.896828
      pz      :     1.080661  p :     3.537581
      px      :     1.341970
      py      :     1.114950
      dz2     :     0.102990  d :     0.388798
      dxz     :     0.054016
      dyz     :     0.127805
      dx2y2   :     0.052349
      dxy     :     0.051638
      f0      :     0.007571  f :     0.032957
      f+1     :     0.002535
      f-1     :     0.005702
      f+2     :     0.006774
      f-2     :     0.004652
      f+3     :     0.003151
      f-3     :     0.002573
  2 N s       :     3.108677  s :     3.108677
      pz      :     1.253395  p :     3.502744
      px      :     1.109345
      py      :     1.140004
      dz2     :     0.051281  d :     0.277748
      dxz     :     0.033969
      dyz     :     0.088730
      dx2y2   :     0.045289
      dxy     :     0.058479
      f0      :     0.005006  f :     0.032231
      f+1     :     0.002747
      f-1     :     0.009046
      f+2     :     0.004878
      f-2     :     0.005277
      f+3     :     0.002498
      f-3     :     0.002779
  3 C s       :     2.742953  s :     2.742953
      pz      :     0.839110  p :     2.722188
      px      :     0.857912
      py      :     1.025165
      dz2     :     0.202340  d :     0.791439
      dxz     :     0.122691
      dyz     :     0.250105
      dx2y2   :     0.096446
      dxy     :     0.119856
      f0      :     0.026666  f :     0.128993
      f+1     :     0.019446
      f-1     :     0.038391
      f+2     :     0.012856
      f-2     :     0.008630
      f+3     :     0.012316
      f-3     :     0.010687
  4 C s       :     2.820328  s :     2.820328
      pz      :     1.049515  p :     3.141708
      px      :     1.065012
      py      :     1.027181
      dz2     :     0.071238  d :     0.269728
      dxz     :     0.018602
      dyz     :     0.053024
      dx2y2   :     0.034755
      dxy     :     0.092109
      f0      :     0.003661  f :     0.030441
      f+1     :     0.002227
      f-1     :     0.005316
      f+2     :     0.005668
      f-2     :     0.005054
      f+3     :     0.003211
      f-3     :     0.005304
  5 O s       :     3.260993  s :     3.260993
      pz      :     1.332250  p :     4.272278
      px      :     1.512994
      py      :     1.427033
      dz2     :     0.041847  d :     0.138325
      dxz     :     0.023850
      dyz     :     0.035008
      dx2y2   :     0.022324
      dxy     :     0.015297
      f0      :     0.002246  f :     0.010925
      f+1     :     0.001666
      f-1     :     0.002824
      f+2     :     0.001286
      f-2     :     0.000722
      f+3     :     0.001001
      f-3     :     0.001180
  6 C s       :     2.723940  s :     2.723940
      pz      :     0.956731  p :     2.606911
      px      :     0.822466
      py      :     0.827714
      dz2     :     0.255359  d :     1.029261
      dxz     :     0.222946
      dyz     :     0.339599
      dx2y2   :     0.106624
      dxy     :     0.104733
      f0      :     0.037389  f :     0.170042
      f+1     :     0.022107
      f-1     :     0.047343
      f+2     :     0.020052
      f-2     :     0.021605
      f+3     :     0.010398
      f-3     :     0.011148
  7 O s       :     3.398121  s :     3.398121
      pz      :     1.468590  p :     4.397355
      px      :     1.377726
      py      :     1.551039
      dz2     :     0.037683  d :     0.097817
      dxz     :     0.023704
      dyz     :     0.023191
      dx2y2   :     0.006601
      dxy     :     0.006638
      f0      :     0.003049  f :     0.009521
      f+1     :     0.002022
      f-1     :     0.002405
      f+2     :     0.000672
      f-2     :     0.000677
      f+3     :     0.000348
      f-3     :     0.000347
  8 H s       :     0.809361  s :     0.809361
      pz      :     0.019064  p :     0.066194
      px      :     0.033711
      py      :     0.013418
  9 H s       :     0.809357  s :     0.809357
      pz      :     0.021525  p :     0.066194
      px      :     0.030852
      py      :     0.013817
 10 H s       :     0.792639  s :     0.792639
      pz      :     0.040294  p :     0.067802
      px      :     0.014309
      py      :     0.013199
 11 H s       :     0.792117  s :     0.792117
      pz      :     0.015337  p :     0.066074
      px      :     0.029946
      py      :     0.020790
 12 H s       :     0.792117  s :     0.792117
      pz      :     0.014330  p :     0.066074
      px      :     0.031474
      py      :     0.020271
 13 H s       :     0.788329  s :     0.788329
      pz      :     0.037534  p :     0.066279
      px      :     0.014109
      py      :     0.014636


                      *****************************
                      * MAYER POPULATION ANALYSIS *
                      *****************************

  NA   - Mulliken gross atomic population
  ZA   - Total nuclear charge
  QA   - Mulliken gross atomic charge
  VA   - Mayer's total valence
  BVA  - Mayer's bonded valence
  FA   - Mayer's free valence

  ATOM       NA         ZA         QA         VA         BVA        FA
  0 C      6.3068     6.0000    -0.3068     3.9491     3.6688     0.2804
  1 N      6.9961     7.0000     0.0039     3.3245     2.9106     0.4139
  2 N      7.2338     7.0000    -0.2338     3.1310     2.6972     0.4337
  3 C      5.7562     6.0000     0.2438     4.0693     3.7172     0.3520
  4 C      6.4135     6.0000    -0.4135     3.9900     3.7006     0.2894
  5 O      8.2165     8.0000    -0.2165     2.4625     2.0439     0.4187
  6 C      5.6987     6.0000     0.3013     4.5309     4.2055     0.3254
  7 O      8.3353     8.0000    -0.3353     2.4935     2.0617     0.4318
  8 H      0.8497     1.0000     0.1503     0.9677     0.9208     0.0469
  9 H      0.8497     1.0000     0.1503     0.9677     0.9208     0.0469
 10 H      0.8229     1.0000     0.1771     0.9759     0.9296     0.0463
 11 H      0.8426     1.0000     0.1574     0.9662     0.9184     0.0478
 12 H      0.8426     1.0000     0.1574     0.9662     0.9184     0.0478
 13 H      0.8356     1.0000     0.1644     0.9780     0.9315     0.0465

  Mayer bond orders larger than 0.1
B(  0-C ,  1-N ) :   0.8659 B(  0-C ,  8-H ) :   0.9313 B(  0-C ,  9-H ) :   0.9313 
B(  0-C , 10-H ) :   0.9215 B(  1-N ,  2-N ) :   0.8640 B(  1-N ,  6-C ) :   1.1657 
B(  2-N ,  3-C ) :   1.7331 B(  3-C ,  4-C ) :   0.8981 B(  3-C ,  5-O ) :   1.0575 
B(  4-C , 11-H ) :   0.9224 B(  4-C , 12-H ) :   0.9224 B(  4-C , 13-H ) :   0.9430 
B(  5-O ,  6-C ) :   0.9821 B(  6-C ,  7-O ) :   1.9918 


-------
TIMINGS
-------

Total time                :  519.664 sec
Integral trafo            :    3.331 sec (  0.6%)
FC preparation            :    1.671 sec (  0.3%)
I/O of integrals          :    0.032 sec (  0.0%)
K(i,j) Operators          :    4.546 sec (  0.9%)
T(i,j) pair energies      :    0.430 sec (  0.1%)
V-calculation             :    0.014 sec (  0.0%)
V**(-1/2)                 :    0.071 sec (  0.0%)
Gamma(ia|P)               :    4.387 sec (  0.8%)
Gamma-Trafo               :    1.558 sec (  0.3%)
D(virtual)                :    1.800 sec (  0.3%)
D(internal)               :    1.352 sec (  0.3%)
W(virtual)                :    0.000 sec (  0.0%)
W(internal)               :    0.000 sec (  0.0%)
L(virtual)                :    9.167 sec (  1.8%)
L(internal)               :    0.129 sec (  0.0%)
G(D)                      :   61.718 sec ( 11.9%)
G(Z)                      :    0.000 sec (  0.0%)
Z-Vector Solution         :  428.929 sec ( 82.5%)
3-Index Derivative        :    0.000 sec (  0.0%)
2-Index Derivative        :    0.000 sec (  0.0%)
Separable Gradient (RIJ)  :    0.000 sec (  0.0%)
Separable Gradient (X)    :    0.000 sec (  0.0%)


---------------------------------------
MP2 TOTAL ENERGY:     -415.240447632 Eh
---------------------------------------

-------------------------   --------------------
FINAL SINGLE POINT ENERGY      -415.240447632291
-------------------------   --------------------


                            ***************************************
                            *     ORCA property calculations      *
                            ***************************************

                                    ---------------------
                                    Active property flags
                                    ---------------------
   (+) Dipole Moment


------------------------------------------------------------------------------
                       ORCA ELECTRIC PROPERTIES CALCULATION
------------------------------------------------------------------------------

Dipole Moment Calculation                       ... on
Quadrupole Moment Calculation                   ... off
Polarizability Calculation                      ... off
GBWName                                         ... dsgdb9nsd_021037.gbw
Electron density file                           ... dsgdb9nsd_021037.scfp.tmp

-------------
DIPOLE MOMENT
-------------
                                X             Y             Z
Electronic contribution:     -0.25606      -0.83754       4.13918
Nuclear contribution   :      0.33462       0.60989      -5.51018
                        -----------------------------------------
Total Dipole Moment    :      0.07857      -0.22765      -1.37101
                        -----------------------------------------
Magnitude (a.u.)       :      1.39200
Magnitude (Debye)      :      3.53818


                         *** MP2 UNRELAXED DENSITY ***

------------------------------------------------------------------------------
                       ORCA ELECTRIC PROPERTIES CALCULATION
------------------------------------------------------------------------------

Dipole Moment Calculation                       ... on
Quadrupole Moment Calculation                   ... off
Polarizability Calculation                      ... off
GBWName                                         ... dsgdb9nsd_021037.gbw
Electron density file                           ... dsgdb9nsd_021037.pmp2ur

-------------
DIPOLE MOMENT
-------------
                                X             Y             Z
Electronic contribution:     -0.25805      -0.81344       4.17776
Nuclear contribution   :      0.33462       0.60989      -5.51018
                        -----------------------------------------
Total Dipole Moment    :      0.07657      -0.20355      -1.33242
                        -----------------------------------------
Magnitude (a.u.)       :      1.35005
Magnitude (Debye)      :      3.43157


                           *** MP2 RELAXED DENSITY ***

------------------------------------------------------------------------------
                       ORCA ELECTRIC PROPERTIES CALCULATION
------------------------------------------------------------------------------

Dipole Moment Calculation                       ... on
Quadrupole Moment Calculation                   ... off
Polarizability Calculation                      ... off
GBWName                                         ... dsgdb9nsd_021037.gbw
Electron density file                           ... dsgdb9nsd_021037.pmp2re

-------------
DIPOLE MOMENT
-------------
                                X             Y             Z
Electronic contribution:     -0.26305      -0.64175       4.29728
Nuclear contribution   :      0.33462       0.60989      -5.51018
                        -----------------------------------------
Total Dipole Moment    :      0.07157      -0.03186      -1.21291
                        -----------------------------------------
Magnitude (a.u.)       :      1.21543
Magnitude (Debye)      :      3.08939


Timings for individual modules:

Sum of individual times         ...      613.879 sec (=  10.231 min)
GTO integral calculation        ...        0.389 sec (=   0.006 min)   0.1 %
SCF iterations                  ...       93.696 sec (=   1.562 min)  15.3 %
MP2 module                      ...      519.794 sec (=   8.663 min)  84.7 %
                             ****ORCA TERMINATED NORMALLY****
TOTAL RUN TIME: 0 days 0 hours 10 minutes 14 seconds 394 msec
