
                                 *****************
                                 * O   R   C   A *
                                 *****************

           --- An Ab Initio, DFT and Semiempirical electronic structure package ---

                  #######################################################
                  #                        -***-                        #
                  #  Department of molecular theory and spectroscopy    #
                  #              Directorship: Frank Neese              #
                  # Max Planck Institute for Chemical Energy Conversion #
                  #                  D-45470 Muelheim/Ruhr              #
                  #                       Germany                       #
                  #                                                     #
                  #                  All rights reserved                #
                  #                        -***-                        #
                  #######################################################


                         Program Version 3.0.3 - RELEASE   -


 With contributions from (in alphabetic order):
   Ute Becker             : Parallelization
   Dmytro Bykov           : SCF Hessian
   Dmitry Ganyushin       : Spin-Orbit,Spin-Spin,Magnetic field MRCI
   Andreas Hansen         : Spin unrestricted coupled pair/coupled cluster methods
   Dimitrios Liakos       : Extrapolation schemes; parallel MDCI
   Robert Izsak           : Overlap fitted RIJCOSX, COSX-SCS-MP3
   Christian Kollmar      : KDIIS, OOCD, Brueckner-CCSD(T), CCSD density
   Simone Kossmann        : Meta GGA functionals, TD-DFT gradient, OOMP2, MP2 Hessian
   Taras Petrenko         : DFT Hessian,TD-DFT gradient, ASA and ECA modules, normal mode analysis, Resonance Raman, ABS, FL, XAS/XES, NRVS
   Christoph Reimann      : Effective Core Potentials
   Michael Roemelt        : Restricted open shell CIS
   Christoph Riplinger    : Improved optimizer, TS searches, QM/MM, DLPNO-CCSD
   Barbara Sandhoefer     : DKH picture change effects
   Igor Schapiro          : Molecular dynamics
   Kantharuban Sivalingam : CASSCF convergence, NEVPT2
   Boris Wezisla          : Elementary symmetry handling
   Frank Wennmohs         : Technical directorship


 We gratefully acknowledge several colleagues who have allowed us to
 interface, adapt or use parts of their codes:
   Stefan Grimme, W. Hujo, H. Kruse, T. Risthaus : VdW corrections, initial TS optimization,
                                                   DFT functionals, gCP
   Ed Valeev                                     : LibInt (2-el integral package), F12 methods
   Garnet Chan, S. Sharma, R. Olivares           : DMRG
   Ulf Ekstrom                                   : XCFun DFT Library
   Mihaly Kallay                                 : mrcc  (arbitrary order and MRCC methods)
   Andreas Klamt, Michael Diedenhofen            : otool_cosmo (COSMO solvation model)
   Frank Weinhold                                : gennbo (NPA and NBO analysis)
   Christopher J. Cramer and Donald G. Truhlar   : smd solvation model


 Your calculation uses the libint2 library for the computation of 2-el integrals
 For citations please refer to: http://libint.valeyev.net

 This ORCA versions uses:
   CBLAS   interface :  Fast vector & matrix operations
   LAPACKE interface :  Fast linear algebra routines
   SCALAPACK package :  Parallel linear algebra routines


Your calculation utilizes the basis: Ahlrichs-TZV
Cite in your paper:
H - Kr: A. Schaefer, H. Horn and R. Ahlrichs, J. Chem. Phys. 97, 2571 (1992).

The def2-TZV basis will be loaded
Cite in your paper:
 	F. Weigend, R. Ahlrichs, Phys. Chem. Chem. Phys. 2005, 7, 3297.

================================================================================
                                        WARNINGS
                       Please study these warnings very carefully!
================================================================================
Now building the actual basis set


INFO   : the flag for use of LIBINT has been found!

================================================================================
                                       INPUT FILE
================================================================================
NAME = dsgdb9nsd_095622.inp
|  1> ! RI-MP2 RIJK def2-TZVP def2-TZVP/C def2-TZVP/JK TIGHTSCF
|  2> % maxcore 2000
|  3> % mp2 density relaxed end
|  4> *xyz 0 1
|  5>  C       -0.2394561276     1.4617647696     0.0419517383 
|  6>  C        0.0413764978    -0.0538756470    -0.0576206306 
|  7>  C        0.8173325067    -0.4500397142    -1.3215018359 
|  8>  O        0.2168533627     0.2089594219    -2.4240594657 
|  9>  C        2.2972284809    -0.1155797869    -1.1468495355 
| 10>  C        2.8314099470    -0.8851349392     0.0520501185 
| 11>  O        2.0697373860    -0.6866878238     1.2521957943 
| 12>  C        0.7250456882    -0.4918984377     1.2402219858 
| 13>  O        0.1214383497    -0.5836434832     2.2742272944 
| 14>  H        0.6831003117     2.0468816343     0.1044296555 
| 15>  H       -0.7957237593     1.7934734598    -0.8352603124 
| 16>  H       -0.8263042323     1.6599218972     0.9410712827 
| 17>  H       -0.9257625170    -0.5645748936    -0.0623423313 
| 18>  H        0.7297749788    -1.5432870544    -1.4459323013 
| 19>  H        0.6521838820    -0.0915709186    -3.2279970721 
| 20>  H        2.8712602209    -0.4063991983    -2.0350038703 
| 21>  H        2.4274064131     0.9626816313    -1.0098641844 
| 22>  H        2.8462778437    -1.9620559522    -0.1630998841 
| 23>  H        3.8502945369    -0.5824487847     0.3044404341 
| 24> *
| 25> 
| 26>                          ****END OF INPUT****
================================================================================

                       ****************************
                       * Single Point Calculation *
                       ****************************

---------------------------------
CARTESIAN COORDINATES (ANGSTROEM)
---------------------------------
  C     -0.239456    1.461765    0.041952
  C      0.041376   -0.053876   -0.057621
  C      0.817333   -0.450040   -1.321502
  O      0.216853    0.208959   -2.424059
  C      2.297228   -0.115580   -1.146850
  C      2.831410   -0.885135    0.052050
  O      2.069737   -0.686688    1.252196
  C      0.725046   -0.491898    1.240222
  O      0.121438   -0.583643    2.274227
  H      0.683100    2.046882    0.104430
  H     -0.795724    1.793473   -0.835260
  H     -0.826304    1.659922    0.941071
  H     -0.925763   -0.564575   -0.062342
  H      0.729775   -1.543287   -1.445932
  H      0.652184   -0.091571   -3.227997
  H      2.871260   -0.406399   -2.035004
  H      2.427406    0.962682   -1.009864
  H      2.846278   -1.962056   -0.163100
  H      3.850295   -0.582449    0.304440

----------------------------
CARTESIAN COORDINATES (A.U.)
----------------------------
  NO LB      ZA    FRAG    MASS        X           Y           Z
   0 C     6.0000    0    12.011         -0.452506502253302          2.762335086758497          0.079277296228935
   1 C     6.0000    0    12.011          0.078190249222795         -0.101810218117816         -0.108887211497843
   2 C     6.0000    0    12.011          1.544534598014357         -0.850451809226191         -2.497276555325143
   3 O     8.0000    0    15.999          0.409793466722894          0.394876080493507         -4.580808522512476
   4 C     6.0000    0    12.011          4.341132695944947         -0.218414143857979         -2.167231538909798
   5 C     6.0000    0    12.011          5.350589372690486         -1.672662626653038          0.098360469203148
   6 O     8.0000    0    15.999          3.911236828678057         -1.297651926480372          2.366307117274990
   7 C     6.0000    0    12.011          1.370137785278459         -0.929553332956725          2.343679898429972
   8 O     8.0000    0    15.999          0.229485223088358         -1.102926343095869          4.297666752704701
   9 H     1.0000    0     1.008          1.290872511109243          3.868045717380152          0.197343449154743
  10 H     1.0000    0     1.008         -1.503699983331274          3.389173667478225         -1.578413240969509
  11 H     1.0000    0     1.008         -1.561488702347047          3.136797789406986          1.778366996800984
  12 H     1.0000    0     1.008         -1.749437622179617         -1.066891930991730         -0.117809932707187
  13 H     1.0000    0     1.008          1.379074849320187         -2.916389878842028         -2.732416057647507
  14 H     1.0000    0     1.008          1.232448925937614         -0.173043957985596         -6.100030427368653
  15 H     1.0000    0     1.008          5.425895476723236         -0.767983185832155         -3.845599996336804
  16 H     1.0000    0     1.008          4.587133336483116          1.819204637313553         -1.908366740971750
  17 H     1.0000    0     1.008          5.378685625640918         -3.707748409088086         -0.308214113423297
  18 H     1.0000    0     1.008          7.276002209674153         -1.100668690118263          0.575309044541101

--------------------------------
INTERNAL COORDINATES (ANGSTROEM)
--------------------------------
 C      0   0   0   0.000000     0.000     0.000
 C      1   0   0   1.544651     0.000     0.000
 C      2   1   0   1.535073   113.466     0.000
 O      3   2   1   1.417917   107.831   313.839
 C      3   2   1   1.527239   109.825    77.884
 C      5   3   2   1.521488   108.636    59.745
 O      6   5   3   1.435227   113.744   306.589
 C      7   6   5   1.358780   122.524    33.527
 O      8   7   6   1.200802   118.615   166.183
 H      1   2   3   1.094247   112.029   297.339
 H      1   2   3   1.090397   109.840    57.695
 H      1   2   3   1.091821   109.201   177.736
 H      2   1   3   1.093706   107.318   239.727
 H      3   2   1   1.103784   107.959   195.240
 H      4   3   2   0.962365   108.232   184.613
 H      5   3   2   1.096771   110.884   179.110
 H      5   3   2   1.094696   110.197   297.979
 H      6   5   3   1.098303   110.263    67.882
 H      6   5   3   1.092449   111.676   187.605

---------------------------
INTERNAL COORDINATES (A.U.)
---------------------------
 C      0   0   0   0.000000     0.000     0.000
 C      1   0   0   2.918968     0.000     0.000
 C      2   1   0   2.900868   113.466     0.000
 O      3   2   1   2.679475   107.831   313.839
 C      3   2   1   2.886063   109.825    77.884
 C      5   3   2   2.875195   108.636    59.745
 O      6   5   3   2.712186   113.744   306.589
 C      7   6   5   2.567721   122.524    33.527
 O      8   7   6   2.269187   118.615   166.183
 H      1   2   3   2.067826   112.029   297.339
 H      1   2   3   2.060551   109.840    57.695
 H      1   2   3   2.063243   109.201   177.736
 H      2   1   3   2.066806   107.318   239.727
 H      3   2   1   2.085849   107.959   195.240
 H      4   3   2   1.818607   108.232   184.613
 H      5   3   2   2.072597   110.884   179.110
 H      5   3   2   2.068675   110.197   297.979
 H      6   5   3   2.075492   110.263    67.882
 H      6   5   3   2.064430   111.676   187.605

---------------------
BASIS SET INFORMATION
---------------------
There are 3 groups of distinct atoms

 Group   1 Type C   : 11s6p2d1f contracted to 5s3p2d1f pattern {62111/411/11/1}
 Group   2 Type O   : 11s6p2d1f contracted to 5s3p2d1f pattern {62111/411/11/1}
 Group   3 Type H   : 5s1p contracted to 3s1p pattern {311/1}

Atom   0C    basis set group =>   1
Atom   1C    basis set group =>   1
Atom   2C    basis set group =>   1
Atom   3O    basis set group =>   2
Atom   4C    basis set group =>   1
Atom   5C    basis set group =>   1
Atom   6O    basis set group =>   2
Atom   7C    basis set group =>   1
Atom   8O    basis set group =>   2
Atom   9H    basis set group =>   3
Atom  10H    basis set group =>   3
Atom  11H    basis set group =>   3
Atom  12H    basis set group =>   3
Atom  13H    basis set group =>   3
Atom  14H    basis set group =>   3
Atom  15H    basis set group =>   3
Atom  16H    basis set group =>   3
Atom  17H    basis set group =>   3
Atom  18H    basis set group =>   3
-------------------------------
AUXILIARY BASIS SET INFORMATION
-------------------------------
There are 3 groups of distinct atoms

 Group   1 Type C   : 14s10p6d2f1g contracted to 10s8p5d1f1g pattern {5111111111/31111111/21111/2/1}
 Group   2 Type O   : 14s10p6d2f1g contracted to 10s8p4d2f1g pattern {5111111111/31111111/3111/11/1}
 Group   3 Type H   : 4s2p2d contracted to 2s2p2d pattern {31/11/11}

Atom   0C    basis set group =>   1
Atom   1C    basis set group =>   1
Atom   2C    basis set group =>   1
Atom   3O    basis set group =>   2
Atom   4C    basis set group =>   1
Atom   5C    basis set group =>   1
Atom   6O    basis set group =>   2
Atom   7C    basis set group =>   1
Atom   8O    basis set group =>   2
Atom   9H    basis set group =>   3
Atom  10H    basis set group =>   3
Atom  11H    basis set group =>   3
Atom  12H    basis set group =>   3
Atom  13H    basis set group =>   3
Atom  14H    basis set group =>   3
Atom  15H    basis set group =>   3
Atom  16H    basis set group =>   3
Atom  17H    basis set group =>   3
Atom  18H    basis set group =>   3
------------------------------------------------------------------------------
                           ORCA GTO INTEGRAL CALCULATION
                           -- RI-GTO INTEGRALS CHOSEN --
------------------------------------------------------------------------------

                         BASIS SET STATISTICS AND STARTUP INFO

Gaussian basis set:
 # of primitive gaussian shells          ...  240
 # of primitive gaussian functions       ...  494
 # of contracted shells                  ...  139
 # of contracted basis functions         ...  339
 Highest angular momentum                ...    3
 Maximum contraction depth               ...    6
Auxiliary gaussian basis set:
 # of primitive gaussian shells          ...  377
 # of primitive gaussian functions       ... 1073
 # of contracted shells                  ...  285
 # of contracted aux-basis functions     ...  861
 Highest angular momentum                ...    4
 Maximum contraction depth               ...    5
Ratio of auxiliary to basis functions    ...  2.54
Integral package used                  ... LIBINT
 One Electron integrals                  ... done
 Ordering auxiliary basis shells         ... done
 Integral threshhold             Thresh  ...  2.500e-11
 Primitive cut-off               TCut    ...  2.500e-12
 Pre-screening matrix                    ... done
 Shell pair data                         ... 
 Ordering of the shell pairs             ... done (   0.002 sec) 9000 of 9730 pairs
 Determination of significant pairs      ... done (   0.000 sec)
 Creation of shell pair data             ... done (   0.002 sec)
 Storage of shell pair data              ... done (   0.002 sec)
 Shell pair data done in (   0.005 sec)
 Computing two index integrals           ... done
 Cholesky decomposition of the V-matrix  ... done


Timings:
 Total evaluation time                   ...   0.400 sec (  0.007 min)
 One electron matrix time                ...   0.094 sec (  0.002 min) = 23.5%
 Schwartz matrix evaluation time         ...   0.216 sec (  0.004 min) = 54.1%
 Two index repulsion integral time       ...   0.022 sec (  0.000 min) =  5.5%
 Cholesky decomposition of V             ...   0.035 sec (  0.001 min) =  8.6%
 Three index repulsion integral time     ...   0.000 sec (  0.000 min) =  0.0%

-------------------------------------------------------------------------------
                                 ORCA SCF
-------------------------------------------------------------------------------

------------
SCF SETTINGS
------------
Hamiltonian:
 Ab initio Hamiltonian  Method          .... Hartree-Fock(GTOs)
 RI-approximation to the Coulomb term is turned on
   Number of auxiliary basis functions  .... 861
   RI-JK (J+K treated both via RI)      .... on


General Settings:
 Integral files         IntName         .... dsgdb9nsd_095622
 Hartree-Fock type      HFTyp           .... RHF
 Total Charge           Charge          ....    0
 Multiplicity           Mult            ....    1
 Number of Electrons    NEL             ....   70
 Basis Dimension        Dim             ....  339
 Nuclear Repulsion      ENuc            ....    489.4614779410 Eh

Convergence Acceleration:
 DIIS                   CNVDIIS         .... on
   Start iteration      DIISMaxIt       ....    12
   Startup error        DIISStart       ....  0.200000
   # of expansion vecs  DIISMaxEq       ....     5
   Bias factor          DIISBfac        ....   1.050
   Max. coefficient     DIISMaxC        ....  10.000
 Newton-Raphson         CNVNR           .... off
 SOSCF                  CNVSOSCF        .... on
   Start iteration      SOSCFMaxIt      ....   150
   Startup grad/error   SOSCFStart      ....  0.003300
 Level Shifting         CNVShift        .... on
   Level shift para.    LevelShift      ....    0.2500
   Turn off err/grad.   ShiftErr        ....    0.0010
 Zerner damping         CNVZerner       .... off
 Static damping         CNVDamp         .... on
   Fraction old density DampFac         ....    0.7000
   Max. Damping (<1)    DampMax         ....    0.9800
   Min. Damping (>=0)   DampMin         ....    0.0000
   Turn off err/grad.   DampErr         ....    0.1000
 Fernandez-Rico         CNVRico         .... off

SCF Procedure:
 Maximum # iterations   MaxIter         ....   125
 SCF integral mode      SCFMode         .... Direct
   Integral package                     .... LIBINT
 Reset frequeny         DirectResetFreq ....    20
 Integral Threshold     Thresh          ....  2.500e-11 Eh
 Primitive CutOff       TCut            ....  2.500e-12 Eh

Convergence Tolerance:
 Convergence Check Mode ConvCheckMode   .... Total+1el-Energy
 Energy Change          TolE            ....  1.000e-08 Eh
 1-El. energy change                    ....  1.000e-05 Eh
 Orbital Gradient       TolG            ....  1.000e-05
 Orbital Rotation angle TolX            ....  1.000e-05
 DIIS Error             TolErr          ....  5.000e-07


Diagonalization of the overlap matrix:
Smallest eigenvalue                        ... 1.069e-04
Time for diagonalization                   ...    0.033 sec
Threshold for overlap eigenvalues          ... 1.000e-08
Number of eigenvalues below threshold      ... 0
Time for construction of square roots      ...    0.018 sec
Total time needed                          ...    0.051 sec

-------------------
DFT GRID GENERATION
-------------------

General Integration Accuracy     IntAcc      ...  4.340
Radial Grid Type                 RadialGrid  ... Gauss-Chebyshev
Angular Grid (max. acc.)         AngularGrid ... Lebedev-110
Angular grid pruning method      GridPruning ... 3 (G Style)
Weight generation scheme         WeightScheme... Becke
Basis function cutoff            BFCut       ...    1.0000e-11
Integration weight cutoff        WCut        ...    1.0000e-14
Grids for H and He will be reduced by one unit

# of grid points (after initial pruning)     ...  23024 (   0.0 sec)
# of grid points (after weights+screening)   ...  21046 (   0.1 sec)
nearest neighbour list constructed           ...    0.0 sec
Grid point re-assignment to atoms done       ...    0.0 sec
Grid point division into batches done        ...    0.0 sec
Reduced shell lists constructed in    1.3 sec

Total number of grid points                  ...    21046
Total number of batches                      ...      339
Average number of points per batch           ...       62
Average number of grid points per atom       ...     1108
Average number of shells per batch           ...    94.78 (68.18%)
Average number of basis functions per batch  ...   235.84 (69.57%)
Average number of large shells per batch     ...    73.87 (77.95%)
Average number of large basis fcns per batch ...   180.30 (76.45%)
Average number of aux-shells per batch       ...    94.78 (33.25%)
Average number of aux functions per batch    ...   235.84 (  inf%)
Maximum spatial batch extension              ...  22.28, 20.95, 18.95 au
Average spatial batch extension              ...   3.61,  3.65,  3.58 au

Time for grid setup =    1.471 sec

------------------------------
INITIAL GUESS: MODEL POTENTIAL
------------------------------
Loading Hartree-Fock densities                     ... done
Calculating cut-offs                               ... done
Setting up the integral package                    ... done
Initializing the effective Hamiltonian             ... done
Starting the Coulomb interaction                   ... done (   0.7 sec)
Reading the grid                                   ... done
Mapping shells                                     ... done
Starting the XC term evaluation                    ... done (   0.7 sec)
Transforming the Hamiltonian                       ... done (   0.0 sec)
Diagonalizing the Hamiltonian                      ... done (   0.0 sec)
Back transforming the eigenvectors                 ... done (   0.0 sec)
Now organizing SCF variables                       ... done
                      ------------------
                      INITIAL GUESS DONE (   3.1 sec)
                      ------------------
--------------
SCF ITERATIONS
--------------
ITER       Energy         Delta-E        Max-DP      RMS-DP      [F,P]     Damp
  0   -457.3930370145   0.000000000000 0.05852602  0.00086025  0.2995258 0.7000
  1   -457.2047563610   0.188280653494 0.09292237  0.00096284  0.2845396 0.7000
                               ***Turning on DIIS***
  2   -457.2503336973  -0.045577336300 0.05891147  0.00066303  0.1882425 0.7000
  3   -458.2788190869  -1.028485389599 0.01000351  0.00029538  0.1349191 0.7000
  4   -457.6696228634   0.609196223513 0.09210383  0.00086675  0.0868313 0.0000
  5   -457.8158525721  -0.146229708622 0.01226188  0.00022083  0.0320771 0.0000
  6   -457.7170510715   0.098801500575 0.00823737  0.00010259  0.0159938 0.0000
  7   -457.7327069041  -0.015655832640 0.00278989  0.00005453  0.0091423 0.0000
  8   -457.7278192884   0.004887615703 0.00324746  0.00005008  0.0074145 0.0000
                      *** Initiating the SOSCF procedure ***
                           *** Shutting down DIIS ***
                      *** Re-Reading the Fockian *** 
                      *** Removing any level shift *** 
ITER      Energy       Delta-E        Grad      Rot      Max-DP    RMS-DP
  9   -457.79996884  -0.0721495495  0.000271  0.000271  0.000424  0.000011
 10   -457.80156459  -0.0015957499  0.000205  0.000331  0.000353  0.000007
 11   -457.80156614  -0.0000015558  0.000059  0.000304  0.000415  0.000009
 12   -457.80156680  -0.0000006565  0.000034  0.000021  0.000075  0.000002
 13   -457.80156685  -0.0000000518  0.000006  0.000009  0.000034  0.000001
                  ***Gradient check signals convergence***
              ***Rediagonalizing the Fockian in SOSCF/NRSCF***

               *****************************************************
               *                     SUCCESS                       *
               *           SCF CONVERGED AFTER  14 CYCLES          *
               *****************************************************


----------------
TOTAL SCF ENERGY
----------------

Total Energy       :         -457.80156686 Eh          -12457.41396 eV

Components:
Nuclear Repulsion  :          489.46147794 Eh           13318.92394 eV
Electronic Energy  :         -947.26304480 Eh          -25776.33789 eV

One Electron Energy:        -1596.81146791 Eh          -43451.44907 eV
Two Electron Energy:          649.54842311 Eh           17675.11118 eV

Virial components:
Potential Energy   :         -915.00716595 Eh          -24898.61081 eV
Kinetic Energy     :          457.20559910 Eh           12441.19685 eV
Virial Ratio       :            2.00130350


---------------
SCF CONVERGENCE
---------------

  Last Energy change         ...   -4.8024e-09  Tolerance :   1.0000e-08
  Last MAX-Density change    ...    1.0565e-05  Tolerance :   1.0000e-07
  Last RMS-Density change    ...    1.8239e-07  Tolerance :   5.0000e-09
  Last Orbital Gradient      ...    2.1133e-06  Tolerance :   1.0000e-05
  Last Orbital Rotation      ...    4.9087e-06  Tolerance :   1.0000e-05

             **** THE GBW FILE WAS UPDATED (dsgdb9nsd_095622.gbw) ****
             **** DENSITY FILE WAS UPDATED (dsgdb9nsd_095622.scfp.tmp) ****
             **** ENERGY FILE WAS UPDATED (dsgdb9nsd_095622.en.tmp) ****
----------------
ORBITAL ENERGIES
----------------

  NO   OCC          E(Eh)            E(eV) 
   0   2.0000     -20.597490      -560.4862 
   1   2.0000     -20.576441      -559.9134 
   2   2.0000     -20.531683      -558.6955 
   3   2.0000     -11.375665      -309.5476 
   4   2.0000     -11.306990      -307.6788 
   5   2.0000     -11.305162      -307.6291 
   6   2.0000     -11.254389      -306.2475 
   7   2.0000     -11.248562      -306.0889 
   8   2.0000     -11.224529      -305.4350 
   9   2.0000      -1.451278       -39.4913 
  10   2.0000      -1.384809       -37.6826 
  11   2.0000      -1.356517       -36.9127 
  12   2.0000      -1.105603       -30.0850 
  13   2.0000      -1.052749       -28.6468 
  14   2.0000      -0.948849       -25.8195 
  15   2.0000      -0.883400       -24.0385 
  16   2.0000      -0.851613       -23.1736 
  17   2.0000      -0.748010       -20.3544 
  18   2.0000      -0.725113       -19.7313 
  19   2.0000      -0.695905       -18.9365 
  20   2.0000      -0.675820       -18.3900 
  21   2.0000      -0.663462       -18.0537 
  22   2.0000      -0.632757       -17.2182 
  23   2.0000      -0.622825       -16.9479 
  24   2.0000      -0.595787       -16.2122 
  25   2.0000      -0.581258       -15.8168 
  26   2.0000      -0.560105       -15.2412 
  27   2.0000      -0.550543       -14.9810 
  28   2.0000      -0.523423       -14.2431 
  29   2.0000      -0.512515       -13.9463 
  30   2.0000      -0.503366       -13.6973 
  31   2.0000      -0.478528       -13.0214 
  32   2.0000      -0.456504       -12.4221 
  33   2.0000      -0.443582       -12.0705 
  34   2.0000      -0.432047       -11.7566 
  35   0.0000       0.113887         3.0990 
  36   0.0000       0.138637         3.7725 
  37   0.0000       0.146457         3.9853 
  38   0.0000       0.159896         4.3510 
  39   0.0000       0.174115         4.7379 
  40   0.0000       0.193346         5.2612 
  41   0.0000       0.199031         5.4159 
  42   0.0000       0.215736         5.8705 
  43   0.0000       0.221154         6.0179 
  44   0.0000       0.236497         6.4354 
  45   0.0000       0.245646         6.6844 
  46   0.0000       0.264861         7.2072 
  47   0.0000       0.276332         7.5194 
  48   0.0000       0.282061         7.6753 
  49   0.0000       0.293511         7.9868 
  50   0.0000       0.316075         8.6008 
  51   0.0000       0.320071         8.7096 
  52   0.0000       0.332406         9.0452 
  53   0.0000       0.345323         9.3967 
  54   0.0000       0.356065         9.6890 
  55   0.0000       0.379189        10.3183 
  56   0.0000       0.393148        10.6981 
  57   0.0000       0.404953        11.0193 
  58   0.0000       0.407703        11.0942 
  59   0.0000       0.435040        11.8380 
  60   0.0000       0.457047        12.4369 
  61   0.0000       0.463464        12.6115 
  62   0.0000       0.485206        13.2031 
  63   0.0000       0.486009        13.2250 
  64   0.0000       0.497929        13.5493 
  65   0.0000       0.513092        13.9619 
  66   0.0000       0.520537        14.1645 
  67   0.0000       0.533736        14.5237 
  68   0.0000       0.545760        14.8509 
  69   0.0000       0.556485        15.1427 
  70   0.0000       0.561194        15.2709 
  71   0.0000       0.565155        15.3786 
  72   0.0000       0.582175        15.8418 
  73   0.0000       0.590252        16.0616 
  74   0.0000       0.599106        16.3025 
  75   0.0000       0.603941        16.4341 
  76   0.0000       0.615025        16.7357 
  77   0.0000       0.627317        17.0702 
  78   0.0000       0.634182        17.2570 
  79   0.0000       0.643372        17.5070 
  80   0.0000       0.668012        18.1775 
  81   0.0000       0.679173        18.4812 
  82   0.0000       0.695033        18.9128 
  83   0.0000       0.706037        19.2122 
  84   0.0000       0.721457        19.6318 
  85   0.0000       0.731998        19.9187 
  86   0.0000       0.752370        20.4730 
  87   0.0000       0.762928        20.7603 
  88   0.0000       0.766039        20.8450 
  89   0.0000       0.806091        21.9349 
  90   0.0000       0.817988        22.2586 
  91   0.0000       0.834468        22.7070 
  92   0.0000       0.846607        23.0373 
  93   0.0000       0.864105        23.5135 
  94   0.0000       0.884932        24.0802 
  95   0.0000       0.899174        24.4678 
  96   0.0000       0.927585        25.2409 
  97   0.0000       0.941266        25.6132 
  98   0.0000       0.970804        26.4169 
  99   0.0000       0.982236        26.7280 
 100   0.0000       0.999163        27.1886 
 101   0.0000       1.018258        27.7082 
 102   0.0000       1.031710        28.0743 
 103   0.0000       1.054773        28.7018 
 104   0.0000       1.062258        28.9055 
 105   0.0000       1.072034        29.1715 
 106   0.0000       1.082357        29.4524 
 107   0.0000       1.129402        30.7326 
 108   0.0000       1.130427        30.7605 
 109   0.0000       1.166637        31.7458 
 110   0.0000       1.172528        31.9061 
 111   0.0000       1.210844        32.9487 
 112   0.0000       1.239685        33.7336 
 113   0.0000       1.244066        33.8528 
 114   0.0000       1.246820        33.9277 
 115   0.0000       1.258858        34.2553 
 116   0.0000       1.319302        35.9000 
 117   0.0000       1.325750        36.0755 
 118   0.0000       1.343612        36.5615 
 119   0.0000       1.350081        36.7376 
 120   0.0000       1.380568        37.5672 
 121   0.0000       1.394075        37.9347 
 122   0.0000       1.417785        38.5799 
 123   0.0000       1.439305        39.1655 
 124   0.0000       1.469269        39.9808 
 125   0.0000       1.479667        40.2638 
 126   0.0000       1.497580        40.7512 
 127   0.0000       1.519068        41.3359 
 128   0.0000       1.583017        43.0761 
 129   0.0000       1.615523        43.9606 
 130   0.0000       1.643480        44.7214 
 131   0.0000       1.677444        45.6456 
 132   0.0000       1.688838        45.9556 
 133   0.0000       1.735380        47.2221 
 134   0.0000       1.756357        47.7929 
 135   0.0000       1.766846        48.0783 
 136   0.0000       1.777664        48.3727 
 137   0.0000       1.816114        49.4190 
 138   0.0000       1.827521        49.7294 
 139   0.0000       1.836898        49.9845 
 140   0.0000       1.848123        50.2900 
 141   0.0000       1.874403        51.0051 
 142   0.0000       1.879754        51.1507 
 143   0.0000       1.901997        51.7560 
 144   0.0000       1.909296        51.9546 
 145   0.0000       1.927156        52.4406 
 146   0.0000       1.942054        52.8460 
 147   0.0000       1.946217        52.9592 
 148   0.0000       1.975754        53.7630 
 149   0.0000       2.019167        54.9443 
 150   0.0000       2.033844        55.3437 
 151   0.0000       2.040143        55.5151 
 152   0.0000       2.070979        56.3542 
 153   0.0000       2.104155        57.2570 
 154   0.0000       2.123700        57.7888 
 155   0.0000       2.133528        58.0563 
 156   0.0000       2.154193        58.6186 
 157   0.0000       2.177734        59.2591 
 158   0.0000       2.203615        59.9634 
 159   0.0000       2.213594        60.2349 
 160   0.0000       2.244009        61.0626 
 161   0.0000       2.268840        61.7383 
 162   0.0000       2.286425        62.2168 
 163   0.0000       2.295868        62.4737 
 164   0.0000       2.309946        62.8568 
 165   0.0000       2.329619        63.3922 
 166   0.0000       2.349657        63.9374 
 167   0.0000       2.371287        64.5260 
 168   0.0000       2.389397        65.0188 
 169   0.0000       2.395713        65.1907 
 170   0.0000       2.442102        66.4530 
 171   0.0000       2.464584        67.0647 
 172   0.0000       2.476725        67.3951 
 173   0.0000       2.492755        67.8313 
 174   0.0000       2.523394        68.6650 
 175   0.0000       2.559541        69.6487 
 176   0.0000       2.591424        70.5162 
 177   0.0000       2.600456        70.7620 
 178   0.0000       2.604546        70.8733 
 179   0.0000       2.622197        71.3536 
 180   0.0000       2.632796        71.6420 
 181   0.0000       2.643347        71.9291 
 182   0.0000       2.656580        72.2892 
 183   0.0000       2.684456        73.0478 
 184   0.0000       2.693121        73.2835 
 185   0.0000       2.722692        74.0882 
 186   0.0000       2.741153        74.5906 
 187   0.0000       2.758012        75.0493 
 188   0.0000       2.763558        75.2002 
 189   0.0000       2.801411        76.2303 
 190   0.0000       2.807989        76.4093 
 191   0.0000       2.839177        77.2579 
 192   0.0000       2.856684        77.7343 
 193   0.0000       2.879565        78.3569 
 194   0.0000       2.896471        78.8170 
 195   0.0000       2.909194        79.1632 
 196   0.0000       2.920788        79.4787 
 197   0.0000       2.939705        79.9934 
 198   0.0000       2.952826        80.3505 
 199   0.0000       2.975097        80.9565 
 200   0.0000       3.001479        81.6744 
 201   0.0000       3.015642        82.0598 
 202   0.0000       3.019499        82.1647 
 203   0.0000       3.044102        82.8342 
 204   0.0000       3.085254        83.9540 
 205   0.0000       3.093090        84.1673 
 206   0.0000       3.115310        84.7719 
 207   0.0000       3.122585        84.9699 
 208   0.0000       3.157239        85.9128 
 209   0.0000       3.173776        86.3628 
 210   0.0000       3.218768        87.5871 
 211   0.0000       3.229558        87.8808 
 212   0.0000       3.254249        88.5526 
 213   0.0000       3.270619        88.9981 
 214   0.0000       3.284472        89.3750 
 215   0.0000       3.339024        90.8595 
 216   0.0000       3.349870        91.1546 
 217   0.0000       3.360263        91.4374 
 218   0.0000       3.367972        91.6472 
 219   0.0000       3.411549        92.8330 
 220   0.0000       3.417128        92.9848 
 221   0.0000       3.428517        93.2947 
 222   0.0000       3.448345        93.8342 
 223   0.0000       3.464429        94.2719 
 224   0.0000       3.485233        94.8380 
 225   0.0000       3.502798        95.3160 
 226   0.0000       3.512655        95.5842 
 227   0.0000       3.522959        95.8646 
 228   0.0000       3.545954        96.4903 
 229   0.0000       3.558664        96.8362 
 230   0.0000       3.571157        97.1761 
 231   0.0000       3.589183        97.6666 
 232   0.0000       3.590209        97.6945 
 233   0.0000       3.626294        98.6765 
 234   0.0000       3.638959        99.0211 
 235   0.0000       3.649954        99.3203 
 236   0.0000       3.669443        99.8506 
 237   0.0000       3.687302       100.3366 
 238   0.0000       3.688774       100.3766 
 239   0.0000       3.706975       100.8719 
 240   0.0000       3.739878       101.7672 
 241   0.0000       3.777219       102.7834 
 242   0.0000       3.787137       103.0532 
 243   0.0000       3.805555       103.5544 
 244   0.0000       3.809027       103.6489 
 245   0.0000       3.830899       104.2441 
 246   0.0000       3.845769       104.6487 
 247   0.0000       3.865092       105.1745 
 248   0.0000       3.885357       105.7259 
 249   0.0000       3.895969       106.0147 
 250   0.0000       3.920479       106.6817 
 251   0.0000       3.928865       106.9098 
 252   0.0000       3.953181       107.5715 
 253   0.0000       3.990237       108.5799 
 254   0.0000       4.003208       108.9328 
 255   0.0000       4.047354       110.1341 
 256   0.0000       4.066792       110.6630 
 257   0.0000       4.083938       111.1296 
 258   0.0000       4.094303       111.4117 
 259   0.0000       4.129521       112.3700 
 260   0.0000       4.187078       113.9362 
 261   0.0000       4.213961       114.6677 
 262   0.0000       4.272618       116.2638 
 263   0.0000       4.281172       116.4966 
 264   0.0000       4.308279       117.2342 
 265   0.0000       4.335865       117.9849 
 266   0.0000       4.362864       118.7196 
 267   0.0000       4.394304       119.5751 
 268   0.0000       4.413741       120.1040 
 269   0.0000       4.445722       120.9742 
 270   0.0000       4.476331       121.8071 
 271   0.0000       4.501305       122.4867 
 272   0.0000       4.520894       123.0198 
 273   0.0000       4.563014       124.1659 
 274   0.0000       4.583917       124.7347 
 275   0.0000       4.673684       127.1774 
 276   0.0000       4.698771       127.8601 
 277   0.0000       4.730711       128.7292 
 278   0.0000       4.762335       129.5897 
 279   0.0000       4.812336       130.9503 
 280   0.0000       4.843000       131.7847 
 281   0.0000       4.878057       132.7387 
 282   0.0000       4.931108       134.1823 
 283   0.0000       4.936858       134.3387 
 284   0.0000       4.995349       135.9303 
 285   0.0000       5.009884       136.3259 
 286   0.0000       5.024331       136.7190 
 287   0.0000       5.129710       139.5865 
 288   0.0000       5.175035       140.8199 
 289   0.0000       5.224009       142.1525 
 290   0.0000       5.259953       143.1306 
 291   0.0000       5.290562       143.9635 
 292   0.0000       5.322485       144.8322 
 293   0.0000       5.375634       146.2784 
 294   0.0000       5.655248       153.8871 
 295   0.0000       5.682016       154.6155 
 296   0.0000       5.700168       155.1095 
 297   0.0000       5.726584       155.8283 
 298   0.0000       5.790592       157.5700 
 299   0.0000       5.844691       159.0421 
 300   0.0000       5.939643       161.6259 
 301   0.0000       5.950717       161.9273 
 302   0.0000       6.080395       165.4560 
 303   0.0000       6.237384       169.7278 
 304   0.0000       6.247956       170.0155 
 305   0.0000       6.305680       171.5863 
 306   0.0000       6.353017       172.8744 
 307   0.0000       6.369325       173.3181 
 308   0.0000       6.391418       173.9193 
 309   0.0000       6.495581       176.7537 
 310   0.0000       6.702346       182.3801 
 311   0.0000       6.732660       183.2050 
 312   0.0000       6.795882       184.9253 
 313   0.0000       6.917513       188.2351 
 314   0.0000       6.929901       188.5722 
 315   0.0000       7.010155       190.7560 
 316   0.0000       7.059912       192.1100 
 317   0.0000       7.167429       195.0357 
 318   0.0000       7.228149       196.6879 
 319   0.0000       7.261549       197.5968 
 320   0.0000       7.315928       199.0765 
 321   0.0000       7.357331       200.2032 
 322   0.0000       7.387439       201.0224 
 323   0.0000       7.442369       202.5172 
 324   0.0000       7.519693       204.6213 
 325   0.0000       7.585781       206.4196 
 326   0.0000       7.602449       206.8732 
 327   0.0000       7.690755       209.2761 
 328   0.0000       7.721728       210.1189 
 329   0.0000       7.925025       215.6509 
 330   0.0000      23.481410       638.9617 
 331   0.0000      23.499954       639.4662 
 332   0.0000      23.594196       642.0307 
 333   0.0000      23.695772       644.7947 
 334   0.0000      23.735412       645.8734 
 335   0.0000      24.401087       663.9873 
 336   0.0000      45.514640      1238.5163 
 337   0.0000      45.546299      1239.3778 
 338   0.0000      45.783299      1245.8269 

                    ********************************
                    * MULLIKEN POPULATION ANALYSIS *
                    ********************************

-----------------------
MULLIKEN ATOMIC CHARGES
-----------------------
   0 C :   -0.401151
   1 C :    0.060259
   2 C :    0.177315
   3 O :   -0.532688
   4 C :   -0.242126
   5 C :   -0.002405
   6 O :   -0.333573
   7 C :    0.391261
   8 O :   -0.441091
   9 H :    0.097166
  10 H :    0.141735
  11 H :    0.143683
  12 H :    0.103448
  13 H :    0.076610
  14 H :    0.326773
  15 H :    0.101849
  16 H :    0.116180
  17 H :    0.094971
  18 H :    0.121785
Sum of atomic charges:   -0.0000000

--------------------------------
MULLIKEN REDUCED ORBITAL CHARGES
--------------------------------
  0 C s       :     3.263529  s :     3.263529
      pz      :     1.089912  p :     3.059744
      px      :     1.060463
      py      :     0.909369
      dz2     :     0.015233  d :     0.073337
      dxz     :     0.014002
      dyz     :     0.011625
      dx2y2   :     0.011756
      dxy     :     0.020722
      f0      :     0.000287  f :     0.004540
      f+1     :     0.001343
      f-1     :     0.000489
      f+2     :     0.000410
      f-2     :     0.000137
      f+3     :     0.000723
      f-3     :     0.001152
  1 C s       :     2.966835  s :     2.966835
      pz      :     0.879075  p :     2.834919
      px      :     0.971442
      py      :     0.984402
      dz2     :     0.026004  d :     0.129835
      dxz     :     0.028303
      dyz     :     0.029407
      dx2y2   :     0.020102
      dxy     :     0.026019
      f0      :     0.001355  f :     0.008153
      f+1     :     0.001860
      f-1     :     0.001012
      f+2     :     0.001132
      f-2     :     0.000761
      f+3     :     0.000823
      f-3     :     0.001211
  2 C s       :     3.091765  s :     3.091765
      pz      :     0.769502  p :     2.535185
      px      :     0.878968
      py      :     0.886715
      dz2     :     0.044484  d :     0.182262
      dxz     :     0.042930
      dyz     :     0.026796
      dx2y2   :     0.048887
      dxy     :     0.019165
      f0      :     0.002287  f :     0.013472
      f+1     :     0.002106
      f-1     :     0.001885
      f+2     :     0.002651
      f-2     :     0.001773
      f+3     :     0.001167
      f-3     :     0.001602
  3 O s       :     3.792766  s :     3.792766
      pz      :     1.249867  p :     4.705346
      px      :     1.713168
      py      :     1.742312
      dz2     :     0.003799  d :     0.032752
      dxz     :     0.011802
      dyz     :     0.009064
      dx2y2   :     0.003045
      dxy     :     0.005042
      f0      :     0.000226  f :     0.001824
      f+1     :     0.000482
      f-1     :     0.000386
      f+2     :     0.000129
      f-2     :     0.000409
      f+3     :     0.000088
      f-3     :     0.000104
  4 C s       :     3.154034  s :     3.154034
      pz      :     0.998830  p :     2.982150
      px      :     0.961142
      py      :     1.022178
      dz2     :     0.018524  d :     0.099538
      dxz     :     0.023678
      dyz     :     0.013039
      dx2y2   :     0.030796
      dxy     :     0.013501
      f0      :     0.000677  f :     0.006403
      f+1     :     0.001180
      f-1     :     0.001074
      f+2     :     0.001039
      f-2     :     0.000468
      f+3     :     0.000856
      f-3     :     0.001110
  5 C s       :     3.181912  s :     3.181912
      pz      :     0.729826  p :     2.669696
      px      :     0.943851
      py      :     0.996019
      dz2     :     0.037563  d :     0.139808
      dxz     :     0.029521
      dyz     :     0.029171
      dx2y2   :     0.029830
      dxy     :     0.013724
      f0      :     0.002031  f :     0.010989
      f+1     :     0.002067
      f-1     :     0.001672
      f+2     :     0.001880
      f-2     :     0.001916
      f+3     :     0.000382
      f-3     :     0.001041
  6 O s       :     3.752199  s :     3.752199
      pz      :     1.493404  p :     4.538832
      px      :     1.279753
      py      :     1.765675
      dz2     :     0.012542  d :     0.040302
      dxz     :     0.009741
      dyz     :     0.003544
      dx2y2   :     0.009245
      dxy     :     0.005230
      f0      :     0.000227  f :     0.002240
      f+1     :     0.000493
      f-1     :     0.000107
      f+2     :     0.000382
      f-2     :     0.000125
      f+3     :     0.000518
      f-3     :     0.000387
  7 C s       :     3.079900  s :     3.079900
      pz      :     0.883308  p :     2.216414
      px      :     0.681489
      py      :     0.651618
      dz2     :     0.073548  d :     0.285725
      dxz     :     0.073159
      dyz     :     0.044427
      dx2y2   :     0.036004
      dxy     :     0.058588
      f0      :     0.007017  f :     0.026699
      f+1     :     0.003821
      f-1     :     0.003232
      f+2     :     0.004354
      f-2     :     0.002875
      f+3     :     0.001970
      f-3     :     0.003430
  8 O s       :     3.826017  s :     3.826017
      pz      :     1.453143  p :     4.575500
      px      :     1.679597
      py      :     1.442760
      dz2     :     0.010488  d :     0.037265
      dxz     :     0.011050
      dyz     :     0.010100
      dx2y2   :     0.002278
      dxy     :     0.003350
      f0      :     0.000486  f :     0.002309
      f+1     :     0.000702
      f-1     :     0.000322
      f+2     :     0.000319
      f-2     :     0.000414
      f+3     :     0.000033
      f-3     :     0.000033
  9 H s       :     0.880912  s :     0.880912
      pz      :     0.003737  p :     0.021922
      px      :     0.010934
      py      :     0.007250
 10 H s       :     0.836010  s :     0.836010
      pz      :     0.011262  p :     0.022255
      px      :     0.006402
      py      :     0.004591
 11 H s       :     0.834267  s :     0.834267
      pz      :     0.011288  p :     0.022050
      px      :     0.006797
      py      :     0.003965
 12 H s       :     0.873302  s :     0.873302
      pz      :     0.003338  p :     0.023250
      px      :     0.013575
      py      :     0.006338
 13 H s       :     0.902343  s :     0.902343
      pz      :     0.002662  p :     0.021046
      px      :     0.003302
      py      :     0.015082
 14 H s       :     0.626931  s :     0.626931
      pz      :     0.018173  p :     0.046296
      px      :     0.014248
      py      :     0.013875
 15 H s       :     0.876014  s :     0.876014
      pz      :     0.011004  p :     0.022137
      px      :     0.007025
      py      :     0.004108
 16 H s       :     0.861303  s :     0.861303
      pz      :     0.003631  p :     0.022517
      px      :     0.003838
      py      :     0.015048
 17 H s       :     0.883754  s :     0.883754
      pz      :     0.002978  p :     0.021275
      px      :     0.002935
      py      :     0.015361
 18 H s       :     0.856316  s :     0.856316
      pz      :     0.003143  p :     0.021900
      px      :     0.014480
      py      :     0.004276


                     *******************************
                     * LOEWDIN POPULATION ANALYSIS *
                     *******************************

----------------------
LOEWDIN ATOMIC CHARGES
----------------------
   0 C :   -0.239844
   1 C :   -0.198276
   2 C :   -0.302929
   3 O :   -0.034983
   4 C :   -0.229788
   5 C :   -0.241940
   6 O :    0.204002
   7 C :   -0.365461
   8 O :    0.063968
   9 H :    0.112447
  10 H :    0.122395
  11 H :    0.124272
  12 H :    0.162478
  13 H :    0.131960
  14 H :    0.175828
  15 H :    0.132751
  16 H :    0.135952
  17 H :    0.120762
  18 H :    0.126404

-------------------------------
LOEWDIN REDUCED ORBITAL CHARGES
-------------------------------
  0 C s       :     2.822695  s :     2.822695
      pz      :     1.068891  p :     3.123217
      px      :     1.058037
      py      :     0.996289
      dz2     :     0.044349  d :     0.269508
      dxz     :     0.047537
      dyz     :     0.050420
      dx2y2   :     0.046378
      dxy     :     0.080824
      f0      :     0.002139  f :     0.024424
      f+1     :     0.003501
      f-1     :     0.003561
      f+2     :     0.003933
      f-2     :     0.001656
      f+3     :     0.004237
      f-3     :     0.005397
  1 C s       :     2.731367  s :     2.731367
      pz      :     0.959793  p :     2.943277
      px      :     0.973850
      py      :     1.009634
      dz2     :     0.108277  d :     0.475483
      dxz     :     0.092814
      dyz     :     0.098609
      dx2y2   :     0.080905
      dxy     :     0.094877
      f0      :     0.007936  f :     0.048149
      f+1     :     0.007614
      f-1     :     0.007601
      f+2     :     0.008192
      f-2     :     0.005469
      f+3     :     0.005053
      f-3     :     0.006283
  2 C s       :     2.737454  s :     2.737454
      pz      :     0.869978  p :     2.806487
      px      :     0.982656
      py      :     0.953853
      dz2     :     0.144046  d :     0.671178
      dxz     :     0.167154
      dyz     :     0.110152
      dx2y2   :     0.171687
      dxy     :     0.078139
      f0      :     0.014942  f :     0.087810
      f+1     :     0.013566
      f-1     :     0.012971
      f+2     :     0.016119
      f-2     :     0.015084
      f+3     :     0.006191
      f-3     :     0.008936
  3 O s       :     3.352150  s :     3.352150
      pz      :     1.253237  p :     4.610428
      px      :     1.660720
      py      :     1.696471
      dz2     :     0.017238  d :     0.068155
      dxz     :     0.021606
      dyz     :     0.017034
      dx2y2   :     0.005821
      dxy     :     0.006458
      f0      :     0.000605  f :     0.004249
      f+1     :     0.000958
      f-1     :     0.000781
      f+2     :     0.000573
      f-2     :     0.001028
      f+3     :     0.000156
      f-3     :     0.000149
  4 C s       :     2.774700  s :     2.774700
      pz      :     1.003386  p :     3.027073
      px      :     1.002188
      py      :     1.021500
      dz2     :     0.072765  d :     0.389870
      dxz     :     0.102947
      dyz     :     0.047824
      dx2y2   :     0.110588
      dxy     :     0.055745
      f0      :     0.004608  f :     0.038145
      f+1     :     0.006375
      f-1     :     0.005112
      f+2     :     0.005964
      f-2     :     0.004850
      f+3     :     0.004621
      f-3     :     0.006614
  5 C s       :     2.790186  s :     2.790186
      pz      :     0.869386  p :     2.855553
      px      :     0.947738
      py      :     1.038429
      dz2     :     0.155199  d :     0.526785
      dxz     :     0.110992
      dyz     :     0.106152
      dx2y2   :     0.113779
      dxy     :     0.040663
      f0      :     0.014590  f :     0.069416
      f+1     :     0.014881
      f-1     :     0.010060
      f+2     :     0.009765
      f-2     :     0.012704
      f+3     :     0.002351
      f-3     :     0.005066
  6 O s       :     3.253552  s :     3.253552
      pz      :     1.480457  p :     4.437110
      px      :     1.340320
      py      :     1.616332
      dz2     :     0.024821  d :     0.099548
      dxz     :     0.029584
      dyz     :     0.009152
      dx2y2   :     0.023639
      dxy     :     0.012353
      f0      :     0.001177  f :     0.005789
      f+1     :     0.000958
      f-1     :     0.000426
      f+2     :     0.001063
      f-2     :     0.000491
      f+3     :     0.000970
      f-3     :     0.000703
  7 C s       :     2.751935  s :     2.751935
      pz      :     1.002823  p :     2.512853
      px      :     0.851327
      py      :     0.658704
      dz2     :     0.250658  d :     0.940858
      dxz     :     0.259287
      dyz     :     0.124562
      dx2y2   :     0.151842
      dxy     :     0.154509
      f0      :     0.042783  f :     0.159815
      f+1     :     0.023173
      f-1     :     0.016752
      f+2     :     0.029317
      f-2     :     0.016557
      f+3     :     0.014503
      f-3     :     0.016729
  8 O s       :     3.396989  s :     3.396989
      pz      :     1.524549  p :     4.466695
      px      :     1.596968
      py      :     1.345178
      dz2     :     0.023401  d :     0.066497
      dxz     :     0.023916
      dyz     :     0.010471
      dx2y2   :     0.004999
      dxy     :     0.003710
      f0      :     0.001387  f :     0.005851
      f+1     :     0.002122
      f-1     :     0.000516
      f+2     :     0.001011
      f-2     :     0.000603
      f+3     :     0.000133
      f-3     :     0.000080
  9 H s       :     0.827245  s :     0.827245
      pz      :     0.012839  p :     0.060308
      px      :     0.029228
      py      :     0.018240
 10 H s       :     0.815444  s :     0.815444
      pz      :     0.029986  p :     0.062161
      px      :     0.018744
      py      :     0.013430
 11 H s       :     0.814259  s :     0.814259
      pz      :     0.029977  p :     0.061468
      px      :     0.019495
      py      :     0.011996
 12 H s       :     0.780162  s :     0.780162
      pz      :     0.010597  p :     0.057360
      px      :     0.030121
      py      :     0.016643
 13 H s       :     0.814031  s :     0.814031
      pz      :     0.009159  p :     0.054009
      px      :     0.010767
      py      :     0.034083
 14 H s       :     0.665958  s :     0.665958
      pz      :     0.060258  p :     0.158214
      px      :     0.051281
      py      :     0.046675
 15 H s       :     0.809724  s :     0.809724
      pz      :     0.025855  p :     0.057525
      px      :     0.018077
      py      :     0.013593
 16 H s       :     0.805159  s :     0.805159
      pz      :     0.011911  p :     0.058888
      px      :     0.012126
      py      :     0.034852
 17 H s       :     0.822353  s :     0.822353
      pz      :     0.009808  p :     0.056884
      px      :     0.010504
      py      :     0.036572
 18 H s       :     0.816127  s :     0.816127
      pz      :     0.009706  p :     0.057469
      px      :     0.033615
      py      :     0.014148


                      *****************************
                      * MAYER POPULATION ANALYSIS *
                      *****************************

  NA   - Mulliken gross atomic population
  ZA   - Total nuclear charge
  QA   - Mulliken gross atomic charge
  VA   - Mayer's total valence
  BVA  - Mayer's bonded valence
  FA   - Mayer's free valence

  ATOM       NA         ZA         QA         VA         BVA        FA
  0 C      6.4012     6.0000    -0.4012     3.9707     3.9707    -0.0000
  1 C      5.9397     6.0000     0.0603     3.7591     3.7591     0.0000
  2 C      5.8227     6.0000     0.1773     3.8827     3.8827    -0.0000
  3 O      8.5327     8.0000    -0.5327     1.8531     1.8531    -0.0000
  4 C      6.2421     6.0000    -0.2421     3.9914     3.9914     0.0000
  5 C      6.0024     6.0000    -0.0024     3.9020     3.9020     0.0000
  6 O      8.3336     8.0000    -0.3336     1.9415     1.9415     0.0000
  7 C      5.6087     6.0000     0.3913     4.2420     4.2420     0.0000
  8 O      8.4411     8.0000    -0.4411     2.0353     2.0353    -0.0000
  9 H      0.9028     1.0000     0.0972     0.9709     0.9709     0.0000
 10 H      0.8583     1.0000     0.1417     0.9732     0.9732    -0.0000
 11 H      0.8563     1.0000     0.1437     0.9747     0.9747    -0.0000
 12 H      0.8966     1.0000     0.1034     0.9833     0.9833     0.0000
 13 H      0.9234     1.0000     0.0766     0.9664     0.9664    -0.0000
 14 H      0.6732     1.0000     0.3268     0.9092     0.9092     0.0000
 15 H      0.8982     1.0000     0.1018     0.9799     0.9799     0.0000
 16 H      0.8838     1.0000     0.1162     0.9710     0.9710     0.0000
 17 H      0.9050     1.0000     0.0950     0.9686     0.9686     0.0000
 18 H      0.8782     1.0000     0.1218     0.9627     0.9627    -0.0000

  Mayer bond orders larger than 0.1
B(  0-C ,  1-C ) :   0.9540 B(  0-C ,  9-H ) :   0.9753 B(  0-C , 10-H ) :   0.9802 
B(  0-C , 11-H ) :   0.9866 B(  1-C ,  2-C ) :   0.9478 B(  1-C ,  7-C ) :   0.9685 
B(  1-C , 12-H ) :   0.9645 B(  2-C ,  3-O ) :   0.9834 B(  2-C ,  4-C ) :   0.9421 
B(  2-C , 13-H ) :   0.9976 B(  3-O , 14-H ) :   0.8882 B(  4-C ,  5-C ) :   1.0024 
B(  4-C , 15-H ) :   0.9760 B(  4-C , 16-H ) :   0.9840 B(  5-C ,  6-O ) :   0.8724 
B(  5-C , 17-H ) :   0.9867 B(  5-C , 18-H ) :   0.9842 B(  6-O ,  7-C ) :   1.1288 
B(  7-C ,  8-O ) :   2.0445 

-------
TIMINGS
-------

Total SCF time: 0 days 0 hours 2 min 30 sec 

Total time                  ....     150.708 sec
Sum of individual times     ....     155.127 sec  (102.9%)

Fock matrix formation       ....     149.100 sec  ( 98.9%)
Diagonalization             ....       0.758 sec  (  0.5%)
Density matrix formation    ....       0.047 sec  (  0.0%)
Population analysis         ....       0.163 sec  (  0.1%)
Initial guess               ....       3.085 sec  (  2.0%)
Orbital Transformation      ....       0.000 sec  (  0.0%)
Orbital Orthonormalization  ....       0.000 sec  (  0.0%)
DIIS solution               ....       0.222 sec  (  0.1%)
SOSCF solution              ....       0.282 sec  (  0.2%)

   <<< Auxbasis replaced with dsgdb9nsd_095622.AUXC.tmp (Dim=834) >>> 


------------------------------------------------------------------------------
                              ORCA MP2 CALCULATION
------------------------------------------------------------------------------

Freezing NCore=18 chemical core electrons

   <<< Use J-auxbasis for calculation of Separable RI-J derivative contributions dsgdb9nsd_095622.AUXJ.tmp (Dim=861) >>> 


---------------------
RI-MP2 ENERGY+DENSITY
---------------------
Dimension of the basis                    ...  339
Memory devoted to MP2                     ... 2000 MB   
Data format for buffers                   ... DOUBLE
Compression type for matrix containers    ... UNCOMPRESSED
Overall scaling of the MP2 energy         ...   1.000e+00 Eh
Calculating two index integrals           ... done (    0.018 sec)
Cholesky decomposition of V**-1           ... done (    0.116 sec)

-----------------
RI-TRANSFORMATION (AUX index driven)
-----------------

Dimension of the orbital-basis         ... 339
Dimension of the aux-basis             ... 834
Transformation of internal MOs         ...    0-  34
Transformation of internal/external MOs...    0-  34 to   35- 338
Number Format for Storage              ... Double (8 Byte)
Integral mode                          ... Direct

First Phase: integral generation and transformation of MO indices
  Aux angular momentum 0               ... done (    0.817 sec)
  Aux angular momentum 1               ... done (    1.099 sec)
  Aux angular momentum 2               ... done (    1.176 sec)
  Aux angular momentum 3               ... done (    0.893 sec)
  Aux angular momentum 4               ... done (    0.428 sec)
Closing buffer VIJ ( 0.00 GB; CompressionRatio= 1.94)
Closing buffer VIA ( 0.07 GB; CompressionRatio= 1.00)
  Phase 1 completed in     4.513 sec
Second Phase: sorting and transformation of aux index

IJ-Transformation
Memory available                       ... 1986 MB 
Max. # MO pairs treated in a batch     ... 35    
# of internal orbitals                 ... 35
# batches for internal orbitals        ... 1
Closing buffer IJV ( 0.00 GB; CompressionRatio= 1.00)
(ij|v) transformation done in     0.206 sec

IA-Transformation
Memory available                       ... 1986 MB 
Max. # MO pairs treated in a batch     ... 35    
# of internal orbitals                 ... 35
# batches for internal orbitals        ... 1
Closing buffer IAV ( 0.07 GB; CompressionRatio= 1.00)
(ia|v) transformation done in     1.495 sec

  Phase 2 completed in     1.722 sec
RI-Integral transformation completed in     6.236 sec
Opening buffers                              ... done
Frozen core precalculation                   ... done

Starting loop over batches of integrals:

Operator 0  - window                       ... (  9- 34)x( 35-338)
Operator 0  - Memory available             ...  2000 MB
Operator 0  - Memory needed per MO         ...   3.9 MB
Operator 0  - Number of orbitals per batch ... 26
Operator 0  - Number of batches            ... 1

OPERATOR  0   PASS   0:  MOs     9 ...   34
  Reading integrals       ... ok
  Internal MO  11
  Internal MO  14
  Internal MO  17
  Internal MO  20
  Internal MO  23
  Internal MO  26
  Internal MO  29
  Internal MO  32
Time spent in pair loops =    40.087 sec
Deleting buffer (Ka|jb)[aa] ...done

-----------------------------------------------
 RI-MP2 CORRELATION ENERGY:     -1.673266853 Eh
-----------------------------------------------


---------------------
MP2 DENSITY FORMATION
---------------------

Completing the external part of the density      ... done
Storing the unrelaxed density                    ... done

Calculating G(D)                                 ... done
Completing the Lagrangian                        ... done
Solving the Z-vector equations                   ... 

------------------------------------------------------------------------------
                           ORCA CP-SCF CALCULATION
------------------------------------------------------------------------------

Input orbitals are from        ... dsgdb9nsd_095622.gbw
Input Perturbation             ... dsgdb9nsd_095622.pin.tmp
Wavefunction output            ... dsgdb9nsd_095622.pout.tmp
Perturbation mode              ... Real perturbation
Solver                         ... POPLE
Max. number of iterations      ... 128
Convergence tolerance          ... 1.000e-08
Integral handling              ... Direct
Number of perturbations        ... 1
Number of operators            ... 1
Orbital ranges used for CP-SCF:
 Operator 0:  Orbitals   0... 34  to  35...338
Variables per vector in CP-SCF ... 10640
Number of vectors sought       ... 1
     CP-SCF ITERATION   0: 
     CP-SCF ITERATION   1:      0.001723175
     CP-SCF ITERATION   2:      0.000324781
     CP-SCF ITERATION   3:      0.000023502
     CP-SCF ITERATION   4:      0.000004266
     CP-SCF ITERATION   5:      0.000000382
     CP-SCF ITERATION   6:      0.000000040
     CP-SCF ITERATION   7:      0.000000004
done
Finalizing the relaxed density                   ... done
Transforming P to the AO basis                   ... done
Storing the relaxed density                      ... done

                *********************************************
                * UNRELAXED MP2 DENSITY POPULATION ANALYSIS *
                *********************************************

------------------------------------------------------------------------------
                           ORCA POPULATION ANALYSIS
------------------------------------------------------------------------------
Input electron density              ... dsgdb9nsd_095622.pmp2ur
BaseName (.gbw .S,...)              ... dsgdb9nsd_095622

                    ********************************
                    * MULLIKEN POPULATION ANALYSIS *
                    ********************************

-----------------------
MULLIKEN ATOMIC CHARGES
-----------------------
   0 C :   -0.408951
   1 C :    0.051208
   2 C :    0.162462
   3 O :   -0.519644
   4 C :   -0.251422
   5 C :   -0.017365
   6 O :   -0.313043
   7 C :    0.358179
   8 O :   -0.416220
   9 H :    0.100472
  10 H :    0.144756
  11 H :    0.146687
  12 H :    0.108212
  13 H :    0.080917
  14 H :    0.324443
  15 H :    0.105821
  16 H :    0.119975
  17 H :    0.098328
  18 H :    0.125185
Sum of atomic charges:   -0.0000000

--------------------------------
MULLIKEN REDUCED ORBITAL CHARGES
--------------------------------
  0 C s       :     3.260197  s :     3.260197
      pz      :     1.083568  p :     3.041581
      px      :     1.054141
      py      :     0.903872
      dz2     :     0.020306  d :     0.098946
      dxz     :     0.019495
      dyz     :     0.017410
      dx2y2   :     0.016096
      dxy     :     0.025639
      f0      :     0.000871  f :     0.008228
      f+1     :     0.001799
      f-1     :     0.000992
      f+2     :     0.000972
      f-2     :     0.000696
      f+3     :     0.001274
      f-3     :     0.001623
  1 C s       :     2.964957  s :     2.964957
      pz      :     0.873936  p :     2.816524
      px      :     0.966361
      py      :     0.976228
      dz2     :     0.030563  d :     0.155039
      dxz     :     0.032079
      dyz     :     0.034977
      dx2y2   :     0.025497
      dxy     :     0.031923
      f0      :     0.002027  f :     0.012272
      f+1     :     0.002325
      f-1     :     0.001599
      f+2     :     0.001759
      f-2     :     0.001358
      f+3     :     0.001459
      f-3     :     0.001745
  2 C s       :     3.090258  s :     3.090258
      pz      :     0.769350  p :     2.527809
      px      :     0.874227
      py      :     0.884232
      dz2     :     0.048191  d :     0.202207
      dxz     :     0.046594
      dyz     :     0.031331
      dx2y2   :     0.052009
      dxy     :     0.024082
      f0      :     0.002912  f :     0.017264
      f+1     :     0.002582
      f-1     :     0.002349
      f+2     :     0.003266
      f-2     :     0.002262
      f+3     :     0.001746
      f-3     :     0.002147
  3 O s       :     3.787469  s :     3.787469
      pz      :     1.240429  p :     4.666917
      px      :     1.698861
      py      :     1.727628
      dz2     :     0.009535  d :     0.060745
      dxz     :     0.017212
      dyz     :     0.014600
      dx2y2   :     0.008806
      dxy     :     0.010593
      f0      :     0.000612  f :     0.004513
      f+1     :     0.000862
      f-1     :     0.000766
      f+2     :     0.000529
      f-2     :     0.000798
      f+3     :     0.000465
      f-3     :     0.000481
  4 C s       :     3.152061  s :     3.152061
      pz      :     0.993511  p :     2.964218
      px      :     0.954767
      py      :     1.015940
      dz2     :     0.023535  d :     0.124813
      dxz     :     0.028869
      dyz     :     0.018166
      dx2y2   :     0.034999
      dxy     :     0.019244
      f0      :     0.001293  f :     0.010330
      f+1     :     0.001702
      f-1     :     0.001564
      f+2     :     0.001653
      f-2     :     0.001035
      f+3     :     0.001418
      f-3     :     0.001666
  5 C s       :     3.180345  s :     3.180345
      pz      :     0.730234  p :     2.662393
      px      :     0.941460
      py      :     0.990699
      dz2     :     0.041073  d :     0.160052
      dxz     :     0.032675
      dyz     :     0.032985
      dx2y2   :     0.034356
      dxy     :     0.018964
      f0      :     0.002599  f :     0.014576
      f+1     :     0.002496
      f-1     :     0.002163
      f+2     :     0.002411
      f-2     :     0.002403
      f+3     :     0.000968
      f-3     :     0.001536
  6 O s       :     3.746318  s :     3.746318
      pz      :     1.477622  p :     4.491844
      px      :     1.267447
      py      :     1.746775
      dz2     :     0.018039  d :     0.069832
      dxz     :     0.015768
      dyz     :     0.009465
      dx2y2   :     0.015088
      dxy     :     0.011472
      f0      :     0.000643  f :     0.005048
      f+1     :     0.000905
      f-1     :     0.000500
      f+2     :     0.000779
      f-2     :     0.000524
      f+3     :     0.000908
      f-3     :     0.000790
  7 C s       :     3.079500  s :     3.079500
      pz      :     0.880855  p :     2.233639
      px      :     0.686898
      py      :     0.665887
      dz2     :     0.076109  d :     0.298868
      dxz     :     0.075998
      dyz     :     0.047003
      dx2y2   :     0.038381
      dxy     :     0.061377
      f0      :     0.007558  f :     0.029815
      f+1     :     0.004411
      f-1     :     0.003609
      f+2     :     0.004849
      f-2     :     0.003317
      f+3     :     0.002300
      f-3     :     0.003770
  8 O s       :     3.819833  s :     3.819833
      pz      :     1.439984  p :     4.527872
      px      :     1.662742
      py      :     1.425146
      dz2     :     0.015710  d :     0.063533
      dxz     :     0.016176
      dyz     :     0.015179
      dx2y2   :     0.007709
      dxy     :     0.008759
      f0      :     0.000909  f :     0.004982
      f+1     :     0.001102
      f-1     :     0.000714
      f+2     :     0.000701
      f-2     :     0.000793
      f+3     :     0.000381
      f-3     :     0.000382
  9 H s       :     0.874437  s :     0.874437
      pz      :     0.004879  p :     0.025091
      px      :     0.011921
      py      :     0.008291
 10 H s       :     0.829976  s :     0.829976
      pz      :     0.012158  p :     0.025268
      px      :     0.007427
      py      :     0.005683
 11 H s       :     0.828246  s :     0.828246
      pz      :     0.012195  p :     0.025067
      px      :     0.007809
      py      :     0.005063
 12 H s       :     0.865543  s :     0.865543
      pz      :     0.004444  p :     0.026244
      px      :     0.014436
      py      :     0.007365
 13 H s       :     0.894786  s :     0.894786
      pz      :     0.003852  p :     0.024297
      px      :     0.004470
      py      :     0.015976
 14 H s       :     0.627536  s :     0.627536
      pz      :     0.018278  p :     0.048021
      px      :     0.015022
      py      :     0.014721
 15 H s       :     0.868916  s :     0.868916
      pz      :     0.011961  p :     0.025263
      px      :     0.008087
      py      :     0.005215
 16 H s       :     0.854424  s :     0.854424
      pz      :     0.004753  p :     0.025602
      px      :     0.004962
      py      :     0.015886
 17 H s       :     0.877250  s :     0.877250
      pz      :     0.004145  p :     0.024422
      px      :     0.004092
      py      :     0.016185
 18 H s       :     0.849890  s :     0.849890
      pz      :     0.004264  p :     0.024926
      px      :     0.015310
      py      :     0.005351


                     *******************************
                     * LOEWDIN POPULATION ANALYSIS *
                     *******************************

----------------------
LOEWDIN ATOMIC CHARGES
----------------------
   0 C :   -0.246312
   1 C :   -0.203221
   2 C :   -0.309198
   3 O :   -0.026197
   4 C :   -0.235356
   5 C :   -0.250513
   6 O :    0.216026
   7 C :   -0.383740
   8 O :    0.079905
   9 H :    0.114333
  10 H :    0.124269
  11 H :    0.126157
  12 H :    0.163965
  13 H :    0.133242
  14 H :    0.174294
  15 H :    0.134410
  16 H :    0.137652
  17 H :    0.122236
  18 H :    0.128050

-------------------------------
LOEWDIN REDUCED ORBITAL CHARGES
-------------------------------
  0 C s       :     2.820956  s :     2.820956
      pz      :     1.061101  p :     3.098814
      px      :     1.050333
      py      :     0.987380
      dz2     :     0.050224  d :     0.296743
      dxz     :     0.053362
      dyz     :     0.055530
      dx2y2   :     0.052091
      dxy     :     0.085536
      f0      :     0.002813  f :     0.029799
      f+1     :     0.004367
      f-1     :     0.004361
      f+2     :     0.004611
      f-2     :     0.002357
      f+3     :     0.004984
      f-3     :     0.006306
  1 C s       :     2.730042  s :     2.730042
      pz      :     0.951209  p :     2.916309
      px      :     0.965805
      py      :     0.999296
      dz2     :     0.113834  d :     0.501966
      dxz     :     0.097966
      dyz     :     0.103364
      dx2y2   :     0.086858
      dxy     :     0.099944
      f0      :     0.008880  f :     0.054904
      f+1     :     0.008836
      f-1     :     0.008636
      f+2     :     0.009043
      f-2     :     0.006364
      f+3     :     0.005872
      f-3     :     0.007274
  2 C s       :     2.736683  s :     2.736683
      pz      :     0.865852  p :     2.788920
      px      :     0.974680
      py      :     0.948388
      dz2     :     0.147220  d :     0.689590
      dxz     :     0.170374
      dyz     :     0.114472
      dx2y2   :     0.174860
      dxy     :     0.082663
      f0      :     0.015688  f :     0.094005
      f+1     :     0.014759
      f-1     :     0.013879
      f+2     :     0.016859
      f-2     :     0.015842
      f+3     :     0.007121
      f-3     :     0.009857
  3 O s       :     3.348864  s :     3.348864
      pz      :     1.243266  p :     4.572255
      px      :     1.646696
      py      :     1.682293
      dz2     :     0.023036  d :     0.097851
      dxz     :     0.027696
      dyz     :     0.023091
      dx2y2   :     0.011581
      dxy     :     0.012447
      f0      :     0.001019  f :     0.007227
      f+1     :     0.001428
      f-1     :     0.001232
      f+2     :     0.000987
      f-2     :     0.001482
      f+3     :     0.000542
      f-3     :     0.000537
  4 C s       :     2.773205  s :     2.773205
      pz      :     0.995056  p :     3.001392
      px      :     0.992797
      py      :     1.013540
      dz2     :     0.078534  d :     0.416511
      dxz     :     0.107814
      dyz     :     0.053634
      dx2y2   :     0.115505
      dxy     :     0.061024
      f0      :     0.005400  f :     0.044247
      f+1     :     0.007362
      f-1     :     0.006018
      f+2     :     0.006807
      f-2     :     0.005645
      f+3     :     0.005518
      f-3     :     0.007498
  5 C s       :     2.789202  s :     2.789202
      pz      :     0.865809  p :     2.839819
      px      :     0.942807
      py      :     1.031204
      dz2     :     0.158138  d :     0.546568
      dxz     :     0.114657
      dyz     :     0.110104
      dx2y2   :     0.117844
      dxy     :     0.045825
      f0      :     0.015261  f :     0.074925
      f+1     :     0.015955
      f-1     :     0.010904
      f+2     :     0.010588
      f-2     :     0.013302
      f+3     :     0.003076
      f-3     :     0.005839
  6 O s       :     3.251152  s :     3.251152
      pz      :     1.465577  p :     4.392918
      px      :     1.327615
      py      :     1.599725
      dz2     :     0.030886  d :     0.130837
      dxz     :     0.035747
      dyz     :     0.015013
      dx2y2   :     0.030486
      dxy     :     0.018704
      f0      :     0.001624  f :     0.009067
      f+1     :     0.001529
      f-1     :     0.000834
      f+2     :     0.001516
      f-2     :     0.000911
      f+3     :     0.001472
      f-3     :     0.001182
  7 C s       :     2.751450  s :     2.751450
      pz      :     0.997306  p :     2.518396
      px      :     0.851334
      py      :     0.669755
      dz2     :     0.251822  d :     0.948254
      dxz     :     0.260539
      dyz     :     0.125976
      dx2y2   :     0.154331
      dxy     :     0.155586
      f0      :     0.043158  f :     0.165640
      f+1     :     0.025442
      f-1     :     0.017349
      f+2     :     0.029807
      f-2     :     0.017212
      f+3     :     0.015370
      f-3     :     0.017302
  8 O s       :     3.392679  s :     3.392679
      pz      :     1.510343  p :     4.421630
      px      :     1.581774
      py      :     1.329513
      dz2     :     0.029609  d :     0.096589
      dxz     :     0.030381
      dyz     :     0.016560
      dx2y2   :     0.010570
      dxy     :     0.009469
      f0      :     0.001930  f :     0.009196
      f+1     :     0.002762
      f-1     :     0.001006
      f+2     :     0.001480
      f-2     :     0.001080
      f+3     :     0.000493
      f-3     :     0.000445
  9 H s       :     0.819956  s :     0.819956
      pz      :     0.014147  p :     0.065711
      px      :     0.031539
      py      :     0.020025
 10 H s       :     0.808458  s :     0.808458
      pz      :     0.032025  p :     0.067274
      px      :     0.020354
      py      :     0.014895
 11 H s       :     0.807239  s :     0.807239
      pz      :     0.032100  p :     0.066604
      px      :     0.021135
      py      :     0.013369
 12 H s       :     0.773241  s :     0.773241
      pz      :     0.011978  p :     0.062794
      px      :     0.032520
      py      :     0.018296
 13 H s       :     0.806851  s :     0.806851
      pz      :     0.010692  p :     0.059907
      px      :     0.012204
      py      :     0.037011
 14 H s       :     0.663947  s :     0.663947
      pz      :     0.061728  p :     0.161759
      px      :     0.052394
      py      :     0.047637
 15 H s       :     0.802606  s :     0.802606
      pz      :     0.028156  p :     0.062984
      px      :     0.019832
      py      :     0.014996
 16 H s       :     0.798024  s :     0.798024
      pz      :     0.013286  p :     0.064324
      px      :     0.013525
      py      :     0.037514
 17 H s       :     0.815410  s :     0.815410
      pz      :     0.011310  p :     0.062354
      px      :     0.011869
      py      :     0.039175
 18 H s       :     0.809263  s :     0.809263
      pz      :     0.011139  p :     0.062686
      px      :     0.036073
      py      :     0.015474


                      *****************************
                      * MAYER POPULATION ANALYSIS *
                      *****************************

  NA   - Mulliken gross atomic population
  ZA   - Total nuclear charge
  QA   - Mulliken gross atomic charge
  VA   - Mayer's total valence
  BVA  - Mayer's bonded valence
  FA   - Mayer's free valence

  ATOM       NA         ZA         QA         VA         BVA        FA
  0 C      6.4090     6.0000    -0.4090     4.0909     3.7854     0.3056
  1 C      5.9488     6.0000     0.0512     3.8631     3.5304     0.3326
  2 C      5.8375     6.0000     0.1625     3.9715     3.6537     0.3178
  3 O      8.5196     8.0000    -0.5196     2.1513     1.7448     0.4065
  4 C      6.2514     6.0000    -0.2514     4.1042     3.7824     0.3218
  5 C      6.0174     6.0000    -0.0174     4.0009     3.6975     0.3034
  6 O      8.3130     8.0000    -0.3130     2.2321     1.8023     0.4298
  7 C      5.6418     6.0000     0.3582     4.3121     3.9603     0.3518
  8 O      8.4162     8.0000    -0.4162     2.3330     1.8820     0.4510
  9 H      0.8995     1.0000     0.1005     0.9802     0.9293     0.0509
 10 H      0.8552     1.0000     0.1448     0.9809     0.9324     0.0485
 11 H      0.8533     1.0000     0.1467     0.9823     0.9339     0.0484
 12 H      0.8918     1.0000     0.1082     0.9913     0.9409     0.0503
 13 H      0.9191     1.0000     0.0809     0.9756     0.9236     0.0519
 14 H      0.6756     1.0000     0.3244     0.9155     0.8643     0.0512
 15 H      0.8942     1.0000     0.1058     0.9885     0.9376     0.0509
 16 H      0.8800     1.0000     0.1200     0.9790     0.9296     0.0494
 17 H      0.9017     1.0000     0.0983     0.9774     0.9271     0.0503
 18 H      0.8748     1.0000     0.1252     0.9706     0.9227     0.0479

  Mayer bond orders larger than 0.1
B(  0-C ,  1-C ) :   0.8930 B(  0-C ,  9-H ) :   0.9348 B(  0-C , 10-H ) :   0.9414 
B(  0-C , 11-H ) :   0.9475 B(  1-C ,  2-C ) :   0.8878 B(  1-C ,  7-C ) :   0.9079 
B(  1-C , 12-H ) :   0.9250 B(  2-C ,  3-O ) :   0.9220 B(  2-C ,  4-C ) :   0.8826 
B(  2-C , 13-H ) :   0.9563 B(  3-O , 14-H ) :   0.8450 B(  4-C ,  5-C ) :   0.9416 
B(  4-C , 15-H ) :   0.9362 B(  4-C , 16-H ) :   0.9435 B(  5-C ,  6-O ) :   0.8137 
B(  5-C , 17-H ) :   0.9471 B(  5-C , 18-H ) :   0.9457 B(  6-O ,  7-C ) :   1.0584 
B(  7-C ,  8-O ) :   1.9020 


                *******************************************
                * RELAXED MP2 DENSITY POPULATION ANALYSIS *
                *******************************************

------------------------------------------------------------------------------
                           ORCA POPULATION ANALYSIS
------------------------------------------------------------------------------
[...]
      f0      :     0.002901  f :     0.016484
      f+1     :     0.002303
      f-1     :     0.002183
      f+2     :     0.003187
      f-2     :     0.002215
      f+3     :     0.001666
      f-3     :     0.002028
  3 O s       :     3.786747  s :     3.786747
      pz      :     1.229731  p :     4.609806
      px      :     1.676098
      py      :     1.703977
      dz2     :     0.009680  d :     0.058580
      dxz     :     0.015781
      dyz     :     0.013529
      dx2y2   :     0.009135
      dxy     :     0.010455
      f0      :     0.000619  f :     0.004442
      f+1     :     0.000831
      f-1     :     0.000744
      f+2     :     0.000531
      f-2     :     0.000768
      f+3     :     0.000466
      f-3     :     0.000481
  4 C s       :     3.185949  s :     3.185949
      pz      :     1.004397  p :     2.992944
      px      :     0.955838
      py      :     1.032709
      dz2     :     0.020502  d :     0.112624
      dxz     :     0.027397
      dyz     :     0.014962
      dx2y2   :     0.030616
      dxy     :     0.019146
      f0      :     0.001308  f :     0.009788
      f+1     :     0.001558
      f-1     :     0.001409
      f+2     :     0.001626
      f-2     :     0.000978
      f+3     :     0.001328
      f-3     :     0.001581
  5 C s       :     3.195897  s :     3.195897
      pz      :     0.747407  p :     2.720748
      px      :     0.960133
      py      :     1.013209
      dz2     :     0.040505  d :     0.150409
      dxz     :     0.029049
      dyz     :     0.031309
      dx2y2   :     0.031134
      dxy     :     0.018412
      f0      :     0.002561  f :     0.013805
      f+1     :     0.002352
      f-1     :     0.001978
      f+2     :     0.002287
      f-2     :     0.002217
      f+3     :     0.000954
      f-3     :     0.001455
  6 O s       :     3.735623  s :     3.735623
      pz      :     1.448988  p :     4.402811
      px      :     1.264930
      py      :     1.688894
      dz2     :     0.016656  d :     0.068412
      dxz     :     0.015780
      dyz     :     0.009728
      dx2y2   :     0.014230
      dxy     :     0.012018
      f0      :     0.000652  f :     0.004991
      f+1     :     0.000857
      f-1     :     0.000503
      f+2     :     0.000783
      f-2     :     0.000529
      f+3     :     0.000865
      f-3     :     0.000802
  7 C s       :     3.078160  s :     3.078160
      pz      :     0.887175  p :     2.377445
      px      :     0.720526
      py      :     0.769743
      dz2     :     0.075048  d :     0.291332
      dxz     :     0.076718
      dyz     :     0.041294
      dx2y2   :     0.039046
      dxy     :     0.059227
      f0      :     0.007075  f :     0.027779
      f+1     :     0.004153
      f-1     :     0.003265
      f+2     :     0.004671
      f-2     :     0.002887
      f+3     :     0.002276
      f-3     :     0.003451
  8 O s       :     3.794382  s :     3.794382
      pz      :     1.431376  p :     4.428096
      px      :     1.620937
      py      :     1.375784
      dz2     :     0.015148  d :     0.060532
      dxz     :     0.014905
      dyz     :     0.014136
      dx2y2   :     0.007844
      dxy     :     0.008499
      f0      :     0.000911  f :     0.004847
      f+1     :     0.001005
      f-1     :     0.000696
      f+2     :     0.000690
      f-2     :     0.000784
      f+3     :     0.000381
      f-3     :     0.000381
  9 H s       :     0.854500  s :     0.854500
      pz      :     0.005138  p :     0.024119
      px      :     0.011029
      py      :     0.007951
 10 H s       :     0.816041  s :     0.816041
      pz      :     0.011241  p :     0.024218
      px      :     0.007216
      py      :     0.005761
 11 H s       :     0.816488  s :     0.816488
      pz      :     0.011176  p :     0.024001
      px      :     0.007553
      py      :     0.005271
 12 H s       :     0.852981  s :     0.852981
      pz      :     0.004704  p :     0.024964
      px      :     0.013107
      py      :     0.007153
 13 H s       :     0.879632  s :     0.879632
      pz      :     0.004087  p :     0.023091
      px      :     0.004686
      py      :     0.014318
 14 H s       :     0.634943  s :     0.634943
      pz      :     0.017547  p :     0.048706
      px      :     0.015624
      py      :     0.015535
 15 H s       :     0.850917  s :     0.850917
      pz      :     0.011035  p :     0.024277
      px      :     0.007875
      py      :     0.005367
 16 H s       :     0.835834  s :     0.835834
      pz      :     0.004958  p :     0.024516
      px      :     0.005174
      py      :     0.014384
 17 H s       :     0.860317  s :     0.860317
      pz      :     0.004383  p :     0.023277
      px      :     0.004330
      py      :     0.014564
 18 H s       :     0.834880  s :     0.834880
      pz      :     0.004397  p :     0.023684
      px      :     0.013826
      py      :     0.005462


                     *******************************
                     * LOEWDIN POPULATION ANALYSIS *
                     *******************************

----------------------
LOEWDIN ATOMIC CHARGES
----------------------
   0 C :   -0.271912
   1 C :   -0.224699
   2 C :   -0.337526
   3 O :   -0.005698
   4 C :   -0.257694
   5 C :   -0.280469
   6 O :    0.256594
   7 C :   -0.449183
   8 O :    0.140792
   9 H :    0.122932
  10 H :    0.131337
  11 H :    0.133233
  12 H :    0.171007
  13 H :    0.140776
  14 H :    0.176253
  15 H :    0.143732
  16 H :    0.145715
  17 H :    0.129782
  18 H :    0.135026

-------------------------------
LOEWDIN REDUCED ORBITAL CHARGES
-------------------------------
  0 C s       :     2.826334  s :     2.826334
      pz      :     1.072919  p :     3.131589
      px      :     1.064025
      py      :     0.994645
      dz2     :     0.046328  d :     0.284561
      dxz     :     0.049282
      dyz     :     0.056649
      dx2y2   :     0.048749
      dxy     :     0.083553
      f0      :     0.002848  f :     0.029428
      f+1     :     0.004214
      f-1     :     0.004269
      f+2     :     0.004660
      f-2     :     0.002291
      f+3     :     0.004939
      f-3     :     0.006207
  1 C s       :     2.737427  s :     2.737427
      pz      :     0.961291  p :     2.934031
      px      :     0.974352
      py      :     0.998388
      dz2     :     0.112556  d :     0.498169
      dxz     :     0.094068
      dyz     :     0.105619
      dx2y2   :     0.086073
      dxy     :     0.099853
      f0      :     0.009165  f :     0.055072
      f+1     :     0.008480
      f-1     :     0.008701
      f+2     :     0.009264
      f-2     :     0.006378
      f+3     :     0.005924
      f-3     :     0.007160
  2 C s       :     2.744077  s :     2.744077
      pz      :     0.873246  p :     2.811583
      px      :     0.978347
      py      :     0.959991
      dz2     :     0.145961  d :     0.689403
      dxz     :     0.171216
      dyz     :     0.115927
      dx2y2   :     0.172637
      dxy     :     0.083663
      f0      :     0.015480  f :     0.092462
      f+1     :     0.014509
      f-1     :     0.013683
      f+2     :     0.016271
      f-2     :     0.015956
      f+3     :     0.006953
      f-3     :     0.009609
  3 O s       :     3.353129  s :     3.353129
      pz      :     1.245183  p :     4.547556
      px      :     1.632979
      py      :     1.669394
      dz2     :     0.023338  d :     0.097685
      dxz     :     0.027114
      dyz     :     0.022689
      dx2y2   :     0.011854
      dxy     :     0.012691
      f0      :     0.001028  f :     0.007328
      f+1     :     0.001459
      f-1     :     0.001256
      f+2     :     0.000999
      f-2     :     0.001499
      f+3     :     0.000545
      f-3     :     0.000542
  4 C s       :     2.780273  s :     2.780273
      pz      :     1.003760  p :     3.026719
      px      :     0.998317
      py      :     1.024641
      dz2     :     0.076355  d :     0.406764
      dxz     :     0.106477
      dyz     :     0.051420
      dx2y2   :     0.111032
      dxy     :     0.061481
      f0      :     0.005504  f :     0.043939
      f+1     :     0.007229
      f-1     :     0.005931
      f+2     :     0.006774
      f-2     :     0.005622
      f+3     :     0.005447
      f-3     :     0.007432
  5 C s       :     2.796559  s :     2.796559
      pz      :     0.875856  p :     2.872533
      px      :     0.953267
      py      :     1.043410
      dz2     :     0.158296  d :     0.538364
      dxz     :     0.111952
      dyz     :     0.108839
      dx2y2   :     0.114061
      dxy     :     0.045217
      f0      :     0.014937  f :     0.073014
      f+1     :     0.015782
      f-1     :     0.010437
      f+2     :     0.010312
      f-2     :     0.012899
      f+3     :     0.003004
      f-3     :     0.005643
  6 O s       :     3.258843  s :     3.258843
      pz      :     1.448909  p :     4.341115
      px      :     1.330679
      py      :     1.561527
      dz2     :     0.030390  d :     0.134108
      dxz     :     0.036679
      dyz     :     0.015412
      dx2y2   :     0.030908
      dxy     :     0.020720
      f0      :     0.001652  f :     0.009340
      f+1     :     0.001589
      f-1     :     0.000862
      f+2     :     0.001533
      f-2     :     0.000925
      f+3     :     0.001502
      f-3     :     0.001277
  7 C s       :     2.756303  s :     2.756303
      pz      :     0.990345  p :     2.590695
      px      :     0.856637
      py      :     0.743714
      dz2     :     0.252810  d :     0.944321
      dxz     :     0.262220
      dyz     :     0.118334
      dx2y2   :     0.157364
      dxy     :     0.153593
      f0      :     0.040491  f :     0.157863
      f+1     :     0.025492
      f-1     :     0.016662
      f+2     :     0.028506
      f-2     :     0.016286
      f+3     :     0.014914
      f-3     :     0.015511
  8 O s       :     3.394874  s :     3.394874
      pz      :     1.504949  p :     4.357884
      px      :     1.555915
      py      :     1.297020
      dz2     :     0.029467  d :     0.097078
      dxz     :     0.029501
      dyz     :     0.017452
      dx2y2   :     0.010675
      dxy     :     0.009982
      f0      :     0.001937  f :     0.009372
      f+1     :     0.002713
      f-1     :     0.001091
      f+2     :     0.001473
      f-2     :     0.001202
      f+3     :     0.000493
      f-3     :     0.000463
  9 H s       :     0.810408  s :     0.810408
      pz      :     0.014698  p :     0.066660
      px      :     0.031655
      py      :     0.020306
 10 H s       :     0.800636  s :     0.800636
      pz      :     0.031911  p :     0.068028
      px      :     0.020661
      py      :     0.015456
 11 H s       :     0.799480  s :     0.799480
      pz      :     0.031889  p :     0.067287
      px      :     0.021404
      py      :     0.013993
 12 H s       :     0.765228  s :     0.765228
      pz      :     0.012808  p :     0.063765
      px      :     0.032298
      py      :     0.018658
 13 H s       :     0.797982  s :     0.797982
      pz      :     0.011447  p :     0.061241
      px      :     0.012748
      py      :     0.037047
 14 H s       :     0.661105  s :     0.661105
      pz      :     0.060930  p :     0.162642
      px      :     0.053148
      py      :     0.048563
 15 H s       :     0.791865  s :     0.791865
      pz      :     0.028408  p :     0.064402
      px      :     0.020402
      py      :     0.015592
 16 H s       :     0.788886  s :     0.788886
      pz      :     0.013873  p :     0.065399
      px      :     0.014186
      py      :     0.037340
 17 H s       :     0.806840  s :     0.806840
      pz      :     0.012012  p :     0.063378
      px      :     0.012433
      py      :     0.038933
 18 H s       :     0.801527  s :     0.801527
      pz      :     0.011705  p :     0.063447
      px      :     0.035792
      py      :     0.015950


                      *****************************
                      * MAYER POPULATION ANALYSIS *
                      *****************************

  NA   - Mulliken gross atomic population
  ZA   - Total nuclear charge
  QA   - Mulliken gross atomic charge
  VA   - Mayer's total valence
  BVA  - Mayer's bonded valence
  FA   - Mayer's free valence

  ATOM       NA         ZA         QA         VA         BVA        FA
  0 C      6.4412     6.0000    -0.4412     4.0367     3.7341     0.3025
  1 C      6.0279     6.0000    -0.0279     3.8348     3.5096     0.3251
  2 C      5.9134     6.0000     0.0866     4.0074     3.6953     0.3121
  3 O      8.4596     8.0000    -0.4596     2.2238     1.8255     0.3983
  4 C      6.3013     6.0000    -0.3013     4.0648     3.7479     0.3169
  5 C      6.0809     6.0000    -0.0809     4.0262     3.7286     0.2977
  6 O      8.2118     8.0000    -0.2118     2.3588     1.9429     0.4160
  7 C      5.7747     6.0000     0.2253     4.4666     4.1358     0.3308
  8 O      8.2879     8.0000    -0.2879     2.4849     2.0518     0.4331
  9 H      0.8786     1.0000     0.1214     0.9770     0.9271     0.0498
 10 H      0.8403     1.0000     0.1597     0.9793     0.9316     0.0477
 11 H      0.8405     1.0000     0.1595     0.9784     0.9308     0.0476
 12 H      0.8779     1.0000     0.1221     0.9860     0.9370     0.0491
 13 H      0.9027     1.0000     0.0973     0.9639     0.9130     0.0509
 14 H      0.6836     1.0000     0.3164     0.9204     0.8694     0.0510
 15 H      0.8752     1.0000     0.1248     0.9805     0.9308     0.0497
 16 H      0.8603     1.0000     0.1397     0.9731     0.9249     0.0482
 17 H      0.8836     1.0000     0.1164     0.9664     0.9170     0.0493
 18 H      0.8586     1.0000     0.1414     0.9609     0.9138     0.0471

  Mayer bond orders larger than 0.1
B(  0-C ,  1-C ) :   0.9057 B(  0-C ,  9-H ) :   0.9270 B(  0-C , 10-H ) :   0.9297 
B(  0-C , 11-H ) :   0.9341 B(  1-C ,  2-C ) :   0.8760 B(  1-C ,  7-C ) :   0.9079 
B(  1-C , 12-H ) :   0.9097 B(  2-C ,  3-O ) :   0.9858 B(  2-C ,  4-C ) :   0.8887 
B(  2-C , 13-H ) :   0.9387 B(  3-O , 14-H ) :   0.8435 B(  4-C ,  5-C ) :   0.9400 
B(  4-C , 15-H ) :   0.9191 B(  4-C , 16-H ) :   0.9276 B(  5-C ,  6-O ) :   0.8644 
B(  5-C , 17-H ) :   0.9293 B(  5-C , 18-H ) :   0.9310 B(  6-O ,  7-C ) :   1.1169 
B(  7-C ,  8-O ) :   2.0219 


-------
TIMINGS
-------

Total time                :  948.403 sec
Integral trafo            :    6.243 sec (  0.7%)
FC preparation            :    3.678 sec (  0.4%)
I/O of integrals          :    0.053 sec (  0.0%)
K(i,j) Operators          :    9.739 sec (  1.0%)
T(i,j) pair energies      :    0.919 sec (  0.1%)
V-calculation             :    0.018 sec (  0.0%)
V**(-1/2)                 :    0.116 sec (  0.0%)
Gamma(ia|P)               :    9.537 sec (  1.0%)
Gamma-Trafo               :    1.489 sec (  0.2%)
D(virtual)                :    3.590 sec (  0.4%)
D(internal)               :    3.470 sec (  0.4%)
W(virtual)                :    0.000 sec (  0.0%)
W(internal)               :    0.000 sec (  0.0%)
L(virtual)                :   10.780 sec (  1.1%)
L(internal)               :    0.194 sec (  0.0%)
G(D)                      :  104.753 sec ( 11.0%)
G(Z)                      :    0.000 sec (  0.0%)
Z-Vector Solution         :  793.090 sec ( 83.6%)
3-Index Derivative        :    0.000 sec (  0.0%)
2-Index Derivative        :    0.000 sec (  0.0%)
Separable Gradient (RIJ)  :    0.000 sec (  0.0%)
Separable Gradient (X)    :    0.000 sec (  0.0%)


---------------------------------------
MP2 TOTAL ENERGY:     -459.474833710 Eh
---------------------------------------

-------------------------   --------------------
FINAL SINGLE POINT ENERGY      -459.474833709702
-------------------------   --------------------


                            ***************************************
                            *     ORCA property calculations      *
                            ***************************************

                                    ---------------------
                                    Active property flags
                                    ---------------------
   (+) Dipole Moment


------------------------------------------------------------------------------
                       ORCA ELECTRIC PROPERTIES CALCULATION
------------------------------------------------------------------------------

Dipole Moment Calculation                       ... on
Quadrupole Moment Calculation                   ... off
Polarizability Calculation                      ... off
GBWName                                         ... dsgdb9nsd_095622.gbw
Electron density file                           ... dsgdb9nsd_095622.scfp.tmp

-------------
DIPOLE MOMENT
-------------
                                X             Y             Z
Electronic contribution:     -0.57208      -2.99123       4.65213
Nuclear contribution   :      1.57436       2.81507      -6.65217
                        -----------------------------------------
Total Dipole Moment    :      1.00228      -0.17616      -2.00003
                        -----------------------------------------
Magnitude (a.u.)       :      2.24404
Magnitude (Debye)      :      5.70390


                         *** MP2 UNRELAXED DENSITY ***

------------------------------------------------------------------------------
                       ORCA ELECTRIC PROPERTIES CALCULATION
------------------------------------------------------------------------------

Dipole Moment Calculation                       ... on
Quadrupole Moment Calculation                   ... off
Polarizability Calculation                      ... off
GBWName                                         ... dsgdb9nsd_095622.gbw
Electron density file                           ... dsgdb9nsd_095622.pmp2ur

-------------
DIPOLE MOMENT
-------------
                                X             Y             Z
Electronic contribution:     -0.59550      -2.98350       4.70514
Nuclear contribution   :      1.57436       2.81507      -6.65217
                        -----------------------------------------
Total Dipole Moment    :      0.97886      -0.16843      -1.94702
                        -----------------------------------------
Magnitude (a.u.)       :      2.18573
Magnitude (Debye)      :      5.55570


                           *** MP2 RELAXED DENSITY ***

------------------------------------------------------------------------------
                       ORCA ELECTRIC PROPERTIES CALCULATION
------------------------------------------------------------------------------

Dipole Moment Calculation                       ... on
Quadrupole Moment Calculation                   ... off
Polarizability Calculation                      ... off
GBWName                                         ... dsgdb9nsd_095622.gbw
Electron density file                           ... dsgdb9nsd_095622.pmp2re

-------------
DIPOLE MOMENT
-------------
                                X             Y             Z
Electronic contribution:     -0.64801      -2.99303       4.87817
Nuclear contribution   :      1.57436       2.81507      -6.65217
                        -----------------------------------------
Total Dipole Moment    :      0.92635      -0.17796      -1.77400
                        -----------------------------------------
Magnitude (a.u.)       :      2.00919
Magnitude (Debye)      :      5.10696


Timings for individual modules:

Sum of individual times         ...     1102.964 sec (=  18.383 min)
GTO integral calculation        ...        0.541 sec (=   0.009 min)   0.0 %
SCF iterations                  ...      153.866 sec (=   2.564 min)  14.0 %
MP2 module                      ...      948.558 sec (=  15.809 min)  86.0 %
                             ****ORCA TERMINATED NORMALLY****
TOTAL RUN TIME: 0 days 0 hours 18 minutes 23 seconds 553 msec
