
                                 *****************
                                 * O   R   C   A *
                                 *****************

           --- An Ab Initio, DFT and Semiempirical electronic structure package ---

                  #######################################################
                  #                        -***-                        #
                  #  Department of molecular theory and spectroscopy    #
                  #              Directorship: Frank Neese              #
                  # Max Planck Institute for Chemical Energy Conversion #
                  #                  D-45470 Muelheim/Ruhr              #
                  #                       Germany                       #
                  #                                                     #
                  #                  All rights reserved                #
                  #                        -***-                        #
                  #######################################################


                         Program Version 3.0.3 - RELEASE   -


 With contributions from (in alphabetic order):
   Ute Becker             : Parallelization
   Dmytro Bykov           : SCF Hessian
   Dmitry Ganyushin       : Spin-Orbit,Spin-Spin,Magnetic field MRCI
   Andreas Hansen         : Spin unrestricted coupled pair/coupled cluster methods
   Dimitrios Liakos       : Extrapolation schemes; parallel MDCI
   Robert Izsak           : Overlap fitted RIJCOSX, COSX-SCS-MP3
   Christian Kollmar      : KDIIS, OOCD, Brueckner-CCSD(T), CCSD density
   Simone Kossmann        : Meta GGA functionals, TD-DFT gradient, OOMP2, MP2 Hessian
   Taras Petrenko         : DFT Hessian,TD-DFT gradient, ASA and ECA modules, normal mode analysis, Resonance Raman, ABS, FL, XAS/XES, NRVS
   Christoph Reimann      : Effective Core Potentials
   Michael Roemelt        : Restricted open shell CIS
   Christoph Riplinger    : Improved optimizer, TS searches, QM/MM, DLPNO-CCSD
   Barbara Sandhoefer     : DKH picture change effects
   Igor Schapiro          : Molecular dynamics
   Kantharuban Sivalingam : CASSCF convergence, NEVPT2
   Boris Wezisla          : Elementary symmetry handling
   Frank Wennmohs         : Technical directorship


 We gratefully acknowledge several colleagues who have allowed us to
 interface, adapt or use parts of their codes:
   Stefan Grimme, W. Hujo, H. Kruse, T. Risthaus : VdW corrections, initial TS optimization,
                                                   DFT functionals, gCP
   Ed Valeev                                     : LibInt (2-el integral package), F12 methods
   Garnet Chan, S. Sharma, R. Olivares           : DMRG
   Ulf Ekstrom                                   : XCFun DFT Library
   Mihaly Kallay                                 : mrcc  (arbitrary order and MRCC methods)
   Andreas Klamt, Michael Diedenhofen            : otool_cosmo (COSMO solvation model)
   Frank Weinhold                                : gennbo (NPA and NBO analysis)
   Christopher J. Cramer and Donald G. Truhlar   : smd solvation model


 Your calculation uses the libint2 library for the computation of 2-el integrals
 For citations please refer to: http://libint.valeyev.net

 This ORCA versions uses:
   CBLAS   interface :  Fast vector & matrix operations
   LAPACKE interface :  Fast linear algebra routines
   SCALAPACK package :  Parallel linear algebra routines


Your calculation utilizes the basis: Ahlrichs-TZV
Cite in your paper:
H - Kr: A. Schaefer, H. Horn and R. Ahlrichs, J. Chem. Phys. 97, 2571 (1992).

The def2-TZV basis will be loaded
Cite in your paper:
 	F. Weigend, R. Ahlrichs, Phys. Chem. Chem. Phys. 2005, 7, 3297.

================================================================================
                                        WARNINGS
                       Please study these warnings very carefully!
================================================================================
Now building the actual basis set


INFO   : the flag for use of LIBINT has been found!

================================================================================
                                       INPUT FILE
================================================================================
NAME = dsgdb9nsd_032417.inp
|  1> ! RI-MP2 RIJK def2-TZVP def2-TZVP/C def2-TZVP/JK TIGHTSCF
|  2> % maxcore 2000
|  3> % mp2 density relaxed end
|  4> *xyz 0 1
|  5>  C       -0.0022288431     1.5917501265    -0.1489343086 
|  6>  C       -0.0227902233     0.0678010346     0.0709195305 
|  7>  C       -1.4050427009    -0.5162835771     0.0572609513 
|  8>  C       -2.1199580827    -1.0222934518     1.1213302216 
|  9>  N       -3.3526484651    -1.4139567030     0.6692582342 
| 10>  C       -3.4627642732    -1.1872499626    -0.6894012558 
| 11>  C       -4.6818021564    -1.5091268281    -1.4835315833 
| 12>  C       -2.2665114860    -0.6284131336    -1.0776395322 
| 13>  O       -2.0014321117    -0.2204791777    -2.3630693086 
| 14>  H        1.0225939949     1.9773936598    -0.1656777361 
| 15>  H       -0.4830700192     1.8554203990    -1.0961967472 
| 16>  H       -0.5493395888     2.1029302509     0.6489297306 
| 17>  H        0.6009031941    -0.4106904225    -0.7000629208 
| 18>  H        0.4616082241    -0.1717727510     1.0242135142 
| 19>  H       -1.8418918058    -1.1327436352     2.1576112875 
| 20>  H       -4.0720583932    -1.8251180361     1.2364819684 
| 21>  H       -5.5454221054    -0.8905399212    -1.2054240354 
| 22>  H       -4.4746161338    -1.3287867066    -2.5408499869 
| 23>  H       -4.9834167574    -2.5590221803    -1.3759502238 
| 24>  H       -1.0496286072    -0.2471254037    -2.4987193597 
| 25> *
| 26> 
| 27>                          ****END OF INPUT****
================================================================================

                       ****************************
                       * Single Point Calculation *
                       ****************************

---------------------------------
CARTESIAN COORDINATES (ANGSTROEM)
---------------------------------
  C     -0.002229    1.591750   -0.148934
  C     -0.022790    0.067801    0.070920
  C     -1.405043   -0.516284    0.057261
  C     -2.119958   -1.022293    1.121330
  N     -3.352648   -1.413957    0.669258
  C     -3.462764   -1.187250   -0.689401
  C     -4.681802   -1.509127   -1.483532
  C     -2.266511   -0.628413   -1.077640
  O     -2.001432   -0.220479   -2.363069
  H      1.022594    1.977394   -0.165678
  H     -0.483070    1.855420   -1.096197
  H     -0.549340    2.102930    0.648930
  H      0.600903   -0.410690   -0.700063
  H      0.461608   -0.171773    1.024214
  H     -1.841892   -1.132744    2.157611
  H     -4.072058   -1.825118    1.236482
  H     -5.545422   -0.890540   -1.205424
  H     -4.474616   -1.328787   -2.540850
  H     -4.983417   -2.559022   -1.375950
  H     -1.049629   -0.247125   -2.498719

----------------------------
CARTESIAN COORDINATES (A.U.)
----------------------------
  NO LB      ZA    FRAG    MASS        X           Y           Z
   0 C     6.0000    0    12.011         -0.004211903054480          3.007971812719509         -0.281445055198913
   1 C     6.0000    0    12.011         -0.043067280567911          0.128125386990519          0.134018490191275
   2 C     6.0000    0    12.011         -2.655145911166030         -0.975634568160217          0.108207516124802
   3 C     6.0000    0    12.011         -4.006140191695780         -1.931854652403025          2.119007024513229
   4 N     7.0000    0    14.007         -6.335587422350442         -2.671990933892229          1.264714775509729
   5 C     6.0000    0    12.011         -6.543676142674869         -2.243577281822248         -1.302779569843390
   6 C     6.0000    0    12.011         -8.847323888797950         -2.851836406462255         -2.803468403459582
   7 C     6.0000    0    12.011         -4.283085987926891         -1.187528721463267         -2.036443586945012
   8 O     8.0000    0    15.999         -3.782158566748687         -0.416645264085158         -4.465553828728643
   9 H     1.0000    0     1.008          1.932422596553465          3.736732475974248         -0.313085547717078
  10 H     1.0000    0     1.008         -0.912870039796081          3.506236417400896         -2.071511641103308
  11 H     1.0000    0     1.008         -1.038101377352914          3.973962252939305          1.226299470993298
  12 H     1.0000    0     1.008          1.135542469847524         -0.776092424349410         -1.322927196825003
  13 H     1.0000    0     1.008          0.872313124714748         -0.324603456660248          1.935483044499065
  14 H     1.0000    0     1.008         -3.480671081275667         -2.140575250470401          4.077294436832229
  15 H     1.0000    0     1.008         -7.695075164483420         -3.448973250309200          2.336612289807871
  16 H     1.0000    0     1.008        -10.479329076198990         -1.682876562391812         -2.277921302152196
  17 H     1.0000    0     1.008         -8.455799047307531         -2.511042965869171         -4.801510622618400
  18 H     1.0000    0     1.008         -9.417292882679881         -4.835851091397051         -2.600169096889655
  19 H     1.0000    0     1.008         -1.983510609937204         -0.466999333727730         -4.721895275360066

--------------------------------
INTERNAL COORDINATES (ANGSTROEM)
--------------------------------
 C      0   0   0   0.000000     0.000     0.000
 C      1   0   0   1.539863     0.000     0.000
 C      2   1   0   1.500654   113.341     0.000
 C      3   2   1   1.378185   127.857   250.886
 N      4   3   2   1.370144   108.476   178.182
 C      5   4   3   1.381838   110.439     0.626
 C      6   5   4   1.490067   123.626   179.854
 C      6   5   4   1.376244   105.945   359.421
 O      8   6   5   1.374411   123.504   182.046
 H      1   2   3   1.095109   111.296   181.871
 H      1   2   3   1.094548   110.861   302.409
 H      1   2   3   1.094177   110.583    61.406
 H      2   1   3   1.101073   108.817   123.054
 H      2   1   3   1.095813   109.552   237.680
 H      4   3   2   1.078610   130.214   358.032
 H      5   4   3   1.004165   125.115   179.501
 H      7   6   5   1.098104   112.753    66.345
 H      7   6   5   1.092415   108.966   185.659
 H      7   6   5   1.097645   112.283   304.949
 H      9   8   6   0.961790   108.334   205.385

---------------------------
INTERNAL COORDINATES (A.U.)
---------------------------
 C      0   0   0   0.000000     0.000     0.000
 C      1   0   0   2.909920     0.000     0.000
 C      2   1   0   2.835826   113.341     0.000
 C      3   2   1   2.604392   127.857   250.886
 N      4   3   2   2.589197   108.476   178.182
 C      5   4   3   2.611296   110.439     0.626
 C      6   5   4   2.815819   123.626   179.854
 C      6   5   4   2.600725   105.945   359.421
 O      8   6   5   2.597261   123.504   182.046
 H      1   2   3   2.069456   111.296   181.871
 H      1   2   3   2.068397   110.861   302.409
 H      1   2   3   2.067694   110.583    61.406
 H      2   1   3   2.080726   108.817   123.054
 H      2   1   3   2.070787   109.552   237.680
 H      4   3   2   2.038277   130.214   358.032
 H      5   4   3   1.897597   125.115   179.501
 H      7   6   5   2.075116   112.753    66.345
 H      7   6   5   2.064365   108.966   185.659
 H      7   6   5   2.074249   112.283   304.949
 H      9   8   6   1.817521   108.334   205.385

---------------------
BASIS SET INFORMATION
---------------------
There are 4 groups of distinct atoms

 Group   1 Type C   : 11s6p2d1f contracted to 5s3p2d1f pattern {62111/411/11/1}
 Group   2 Type N   : 11s6p2d1f contracted to 5s3p2d1f pattern {62111/411/11/1}
 Group   3 Type O   : 11s6p2d1f contracted to 5s3p2d1f pattern {62111/411/11/1}
 Group   4 Type H   : 5s1p contracted to 3s1p pattern {311/1}

Atom   0C    basis set group =>   1
Atom   1C    basis set group =>   1
Atom   2C    basis set group =>   1
Atom   3C    basis set group =>   1
Atom   4N    basis set group =>   2
Atom   5C    basis set group =>   1
Atom   6C    basis set group =>   1
Atom   7C    basis set group =>   1
Atom   8O    basis set group =>   3
Atom   9H    basis set group =>   4
Atom  10H    basis set group =>   4
Atom  11H    basis set group =>   4
Atom  12H    basis set group =>   4
Atom  13H    basis set group =>   4
Atom  14H    basis set group =>   4
Atom  15H    basis set group =>   4
Atom  16H    basis set group =>   4
Atom  17H    basis set group =>   4
Atom  18H    basis set group =>   4
Atom  19H    basis set group =>   4
-------------------------------
AUXILIARY BASIS SET INFORMATION
-------------------------------
There are 4 groups of distinct atoms

 Group   1 Type C   : 14s10p6d2f1g contracted to 10s8p5d1f1g pattern {5111111111/31111111/21111/2/1}
 Group   2 Type N   : 14s10p6d2f1g contracted to 10s8p4d2f1g pattern {5111111111/31111111/3111/11/1}
 Group   3 Type O   : 14s10p6d2f1g contracted to 10s8p4d2f1g pattern {5111111111/31111111/3111/11/1}
 Group   4 Type H   : 4s2p2d contracted to 2s2p2d pattern {31/11/11}

Atom   0C    basis set group =>   1
Atom   1C    basis set group =>   1
Atom   2C    basis set group =>   1
Atom   3C    basis set group =>   1
Atom   4N    basis set group =>   2
Atom   5C    basis set group =>   1
Atom   6C    basis set group =>   1
Atom   7C    basis set group =>   1
Atom   8O    basis set group =>   3
Atom   9H    basis set group =>   4
Atom  10H    basis set group =>   4
Atom  11H    basis set group =>   4
Atom  12H    basis set group =>   4
Atom  13H    basis set group =>   4
Atom  14H    basis set group =>   4
Atom  15H    basis set group =>   4
Atom  16H    basis set group =>   4
Atom  17H    basis set group =>   4
Atom  18H    basis set group =>   4
Atom  19H    basis set group =>   4
------------------------------------------------------------------------------
                           ORCA GTO INTEGRAL CALCULATION
                           -- RI-GTO INTEGRALS CHOSEN --
------------------------------------------------------------------------------

                         BASIS SET STATISTICS AND STARTUP INFO

Gaussian basis set:
 # of primitive gaussian shells          ...  246
 # of primitive gaussian functions       ...  502
 # of contracted shells                  ...  143
 # of contracted basis functions         ...  345
 Highest angular momentum                ...    3
 Maximum contraction depth               ...    6
Auxiliary gaussian basis set:
 # of primitive gaussian shells          ...  385
 # of primitive gaussian functions       ... 1093
 # of contracted shells                  ...  291
 # of contracted aux-basis functions     ...  877
 Highest angular momentum                ...    4
 Maximum contraction depth               ...    5
Ratio of auxiliary to basis functions    ...  2.54
Integral package used                  ... LIBINT
 One Electron integrals                  ... done
 Ordering auxiliary basis shells         ... done
 Integral threshhold             Thresh  ...  2.500e-11
 Primitive cut-off               TCut    ...  2.500e-12
 Pre-screening matrix                    ... done
 Shell pair data                         ... 
 Ordering of the shell pairs             ... done (   0.002 sec) 9221 of 10296 pairs
 Determination of significant pairs      ... done (   0.000 sec)
 Creation of shell pair data             ... done (   0.002 sec)
 Storage of shell pair data              ... done (   0.002 sec)
 Shell pair data done in (   0.006 sec)
 Computing two index integrals           ... done
 Cholesky decomposition of the V-matrix  ... done


Timings:
 Total evaluation time                   ...   0.402 sec (  0.007 min)
 One electron matrix time                ...   0.097 sec (  0.002 min) = 24.1%
 Schwartz matrix evaluation time         ...   0.213 sec (  0.004 min) = 53.0%
 Two index repulsion integral time       ...   0.023 sec (  0.000 min) =  5.6%
 Cholesky decomposition of V             ...   0.036 sec (  0.001 min) =  9.0%
 Three index repulsion integral time     ...   0.000 sec (  0.000 min) =  0.0%

-------------------------------------------------------------------------------
                                 ORCA SCF
-------------------------------------------------------------------------------

------------
SCF SETTINGS
------------
Hamiltonian:
 Ab initio Hamiltonian  Method          .... Hartree-Fock(GTOs)
 RI-approximation to the Coulomb term is turned on
   Number of auxiliary basis functions  .... 877
   RI-JK (J+K treated both via RI)      .... on


General Settings:
 Integral files         IntName         .... dsgdb9nsd_032417
 Hartree-Fock type      HFTyp           .... RHF
 Total Charge           Charge          ....    0
 Multiplicity           Mult            ....    1
 Number of Electrons    NEL             ....   68
 Basis Dimension        Dim             ....  345
 Nuclear Repulsion      ENuc            ....    450.5712003033 Eh

Convergence Acceleration:
 DIIS                   CNVDIIS         .... on
   Start iteration      DIISMaxIt       ....    12
   Startup error        DIISStart       ....  0.200000
   # of expansion vecs  DIISMaxEq       ....     5
   Bias factor          DIISBfac        ....   1.050
   Max. coefficient     DIISMaxC        ....  10.000
 Newton-Raphson         CNVNR           .... off
 SOSCF                  CNVSOSCF        .... on
   Start iteration      SOSCFMaxIt      ....   150
   Startup grad/error   SOSCFStart      ....  0.003300
 Level Shifting         CNVShift        .... on
   Level shift para.    LevelShift      ....    0.2500
   Turn off err/grad.   ShiftErr        ....    0.0010
 Zerner damping         CNVZerner       .... off
 Static damping         CNVDamp         .... on
   Fraction old density DampFac         ....    0.7000
   Max. Damping (<1)    DampMax         ....    0.9800
   Min. Damping (>=0)   DampMin         ....    0.0000
   Turn off err/grad.   DampErr         ....    0.1000
 Fernandez-Rico         CNVRico         .... off

SCF Procedure:
 Maximum # iterations   MaxIter         ....   125
 SCF integral mode      SCFMode         .... Direct
   Integral package                     .... LIBINT
 Reset frequeny         DirectResetFreq ....    20
 Integral Threshold     Thresh          ....  2.500e-11 Eh
 Primitive CutOff       TCut            ....  2.500e-12 Eh

Convergence Tolerance:
 Convergence Check Mode ConvCheckMode   .... Total+1el-Energy
 Energy Change          TolE            ....  1.000e-08 Eh
 1-El. energy change                    ....  1.000e-05 Eh
 Orbital Gradient       TolG            ....  1.000e-05
 Orbital Rotation angle TolX            ....  1.000e-05
 DIIS Error             TolErr          ....  5.000e-07


Diagonalization of the overlap matrix:
Smallest eigenvalue                        ... 3.005e-05
Time for diagonalization                   ...    0.034 sec
Threshold for overlap eigenvalues          ... 1.000e-08
Number of eigenvalues below threshold      ... 0
Time for construction of square roots      ...    0.019 sec
Total time needed                          ...    0.053 sec

-------------------
DFT GRID GENERATION
-------------------

General Integration Accuracy     IntAcc      ...  4.340
Radial Grid Type                 RadialGrid  ... Gauss-Chebyshev
Angular Grid (max. acc.)         AngularGrid ... Lebedev-110
Angular grid pruning method      GridPruning ... 3 (G Style)
Weight generation scheme         WeightScheme... Becke
Basis function cutoff            BFCut       ...    1.0000e-11
Integration weight cutoff        WCut        ...    1.0000e-14
Grids for H and He will be reduced by one unit

# of grid points (after initial pruning)     ...  23744 (   0.0 sec)
# of grid points (after weights+screening)   ...  21834 (   0.1 sec)
nearest neighbour list constructed           ...    0.0 sec
Grid point re-assignment to atoms done       ...    0.0 sec
Grid point division into batches done        ...    0.0 sec
Reduced shell lists constructed in    1.4 sec

Total number of grid points                  ...    21834
Total number of batches                      ...      348
Average number of points per batch           ...       62
Average number of grid points per atom       ...     1092
Average number of shells per batch           ...    92.55 (64.72%)
Average number of basis functions per batch  ...   228.24 (66.16%)
Average number of large shells per batch     ...    71.16 (76.89%)
Average number of large basis fcns per batch ...   173.81 (76.15%)
Average number of aux-shells per batch       ...    92.55 (31.80%)
Average number of aux functions per batch    ...   228.24 (  inf%)
Maximum spatial batch extension              ...  19.63, 20.05, 19.90 au
Average spatial batch extension              ...   3.54,  3.83,  3.54 au

Time for grid setup =    1.503 sec

------------------------------
INITIAL GUESS: MODEL POTENTIAL
------------------------------
Loading Hartree-Fock densities                     ... done
Calculating cut-offs                               ... done
Setting up the integral package                    ... done
Initializing the effective Hamiltonian             ... done
Starting the Coulomb interaction                   ... done (   0.7 sec)
Reading the grid                                   ... done
Mapping shells                                     ... done
Starting the XC term evaluation                    ... done (   0.7 sec)
Transforming the Hamiltonian                       ... done (   0.0 sec)
Diagonalizing the Hamiltonian                      ... done (   0.0 sec)
Back transforming the eigenvectors                 ... done (   0.0 sec)
Now organizing SCF variables                       ... done
                      ------------------
                      INITIAL GUESS DONE (   3.1 sec)
                      ------------------
--------------
SCF ITERATIONS
--------------
ITER       Energy         Delta-E        Max-DP      RMS-DP      [F,P]     Damp
  0   -400.4705678638   0.000000000000 0.04267356  0.00094043  0.2914902 0.7000
  1   -400.3177910254   0.152776838405 0.06131951  0.00102762  0.2476190 0.7000
                               ***Turning on DIIS***
  2   -400.3710940863  -0.053303060859 0.04106630  0.00075174  0.1834689 0.7000
  3   -401.7253236307  -1.354229544426 0.01791368  0.00039258  0.1298141 0.7000
  4   -400.8669858409   0.858337789798 0.04152292  0.00092794  0.0854846 0.0000
  5   -400.8299899210   0.036995919923 0.00885186  0.00020145  0.0216088 0.0000
  6   -400.7875655720   0.042424348943 0.00706021  0.00012229  0.0172515 0.0000
  7   -400.8221368937  -0.034571321697 0.00251205  0.00006491  0.0071091 0.0000
  8   -400.8212866319   0.000850261842 0.00175363  0.00004919  0.0048463 0.0000
                      *** Initiating the SOSCF procedure ***
                           *** Shutting down DIIS ***
                      *** Re-Reading the Fockian *** 
                      *** Removing any level shift *** 
ITER      Energy       Delta-E        Grad      Rot      Max-DP    RMS-DP
  9   -400.91719077  -0.0959041395  0.000179  0.000179  0.000661  0.000015
 10   -400.92246023  -0.0052694545  0.000153  0.000313  0.000210  0.000005
 11   -400.92246077  -0.0000005417  0.000064  0.000189  0.000186  0.000004
 12   -400.92246102  -0.0000002571  0.000016  0.000088  0.000062  0.000001
 13   -400.92246105  -0.0000000230  0.000004  0.000009  0.000019  0.000001
                 **** Energy Check signals convergence ****
              ***Rediagonalizing the Fockian in SOSCF/NRSCF***

               *****************************************************
               *                     SUCCESS                       *
               *           SCF CONVERGED AFTER  14 CYCLES          *
               *****************************************************


----------------
TOTAL SCF ENERGY
----------------

Total Energy       :         -400.92246105 Eh          -10909.65480 eV

Components:
Nuclear Repulsion  :          450.57120030 Eh           12260.66568 eV
Electronic Energy  :         -851.49366135 Eh          -23170.32048 eV

One Electron Energy:        -1438.39188575 Eh          -39140.63308 eV
Two Electron Energy:          586.89822440 Eh           15970.31260 eV

Virial components:
Potential Energy   :         -801.32460423 Eh          -21805.15103 eV
Kinetic Energy     :          400.40214318 Eh           10895.49623 eV
Virial Ratio       :            2.00129949


---------------
SCF CONVERGENCE
---------------

  Last Energy change         ...   -2.0257e-09  Tolerance :   1.0000e-08
  Last MAX-Density change    ...    8.6221e-06  Tolerance :   1.0000e-07
  Last RMS-Density change    ...    1.7854e-07  Tolerance :   5.0000e-09
  Last Orbital Gradient      ...    2.9846e-06  Tolerance :   1.0000e-05
  Last Orbital Rotation      ...    5.1111e-06  Tolerance :   1.0000e-05

             **** THE GBW FILE WAS UPDATED (dsgdb9nsd_032417.gbw) ****
             **** DENSITY FILE WAS UPDATED (dsgdb9nsd_032417.scfp.tmp) ****
             **** ENERGY FILE WAS UPDATED (dsgdb9nsd_032417.en.tmp) ****
----------------
ORBITAL ENERGIES
----------------

  NO   OCC          E(Eh)            E(eV) 
   0   2.0000     -20.567814      -559.6787 
   1   2.0000     -15.591273      -424.2601 
   2   2.0000     -11.257169      -306.3232 
   3   2.0000     -11.245182      -305.9970 
   4   2.0000     -11.240933      -305.8814 
   5   2.0000     -11.227603      -305.5186 
   6   2.0000     -11.221985      -305.3657 
   7   2.0000     -11.210597      -305.0559 
   8   2.0000     -11.208607      -305.0017 
   9   2.0000      -1.379105       -37.5274 
  10   2.0000      -1.279411       -34.8145 
  11   2.0000      -1.069752       -29.1094 
  12   2.0000      -1.022065       -27.8118 
  13   2.0000      -0.991161       -26.9709 
  14   2.0000      -0.910019       -24.7629 
  15   2.0000      -0.853496       -23.2248 
  16   2.0000      -0.775544       -21.1036 
  17   2.0000      -0.762157       -20.7394 
  18   2.0000      -0.694557       -18.8999 
  19   2.0000      -0.650633       -17.7046 
  20   2.0000      -0.619216       -16.8497 
  21   2.0000      -0.606447       -16.5023 
  22   2.0000      -0.592284       -16.1169 
  23   2.0000      -0.586991       -15.9729 
  24   2.0000      -0.557650       -15.1744 
  25   2.0000      -0.549234       -14.9454 
  26   2.0000      -0.530793       -14.4436 
  27   2.0000      -0.526942       -14.3388 
  28   2.0000      -0.513929       -13.9847 
  29   2.0000      -0.508110       -13.8264 
  30   2.0000      -0.487783       -13.2732 
  31   2.0000      -0.463855       -12.6221 
  32   2.0000      -0.319249        -8.6872 
  33   2.0000      -0.276168        -7.5149 
  34   0.0000       0.130546         3.5523 
  35   0.0000       0.135660         3.6915 
  36   0.0000       0.161686         4.3997 
  37   0.0000       0.169183         4.6037 
  38   0.0000       0.177513         4.8304 
  39   0.0000       0.183939         5.0052 
  40   0.0000       0.206053         5.6070 
  41   0.0000       0.220838         6.0093 
  42   0.0000       0.225605         6.1390 
  43   0.0000       0.238378         6.4866 
  44   0.0000       0.242705         6.6043 
  45   0.0000       0.244969         6.6659 
  46   0.0000       0.264382         7.1942 
  47   0.0000       0.267374         7.2756 
  48   0.0000       0.282188         7.6787 
  49   0.0000       0.305586         8.3154 
  50   0.0000       0.307436         8.3658 
  51   0.0000       0.323029         8.7901 
  52   0.0000       0.334792         9.1101 
  53   0.0000       0.342251         9.3131 
  54   0.0000       0.347298         9.4504 
  55   0.0000       0.352090         9.5809 
  56   0.0000       0.378570        10.3014 
  57   0.0000       0.380217        10.3462 
  58   0.0000       0.402156        10.9432 
  59   0.0000       0.428456        11.6589 
  60   0.0000       0.437330        11.9003 
  61   0.0000       0.441710        12.0195 
  62   0.0000       0.466358        12.6902 
  63   0.0000       0.475959        12.9515 
  64   0.0000       0.486781        13.2460 
  65   0.0000       0.500656        13.6236 
  66   0.0000       0.512543        13.9470 
  67   0.0000       0.527943        14.3661 
  68   0.0000       0.532319        14.4851 
  69   0.0000       0.553354        15.0575 
  70   0.0000       0.559621        15.2281 
  71   0.0000       0.560706        15.2576 
  72   0.0000       0.571611        15.5543 
  73   0.0000       0.577523        15.7152 
  74   0.0000       0.594170        16.1682 
  75   0.0000       0.602336        16.3904 
  76   0.0000       0.606838        16.5129 
  77   0.0000       0.618106        16.8195 
  78   0.0000       0.625371        17.0172 
  79   0.0000       0.640421        17.4267 
  80   0.0000       0.642399        17.4806 
  81   0.0000       0.660371        17.9696 
  82   0.0000       0.665695        18.1145 
  83   0.0000       0.673705        18.3325 
  84   0.0000       0.681827        18.5534 
  85   0.0000       0.699837        19.0435 
  86   0.0000       0.721496        19.6329 
  87   0.0000       0.724382        19.7114 
  88   0.0000       0.747605        20.3434 
  89   0.0000       0.758848        20.6493 
  90   0.0000       0.765532        20.8312 
  91   0.0000       0.775823        21.1112 
  92   0.0000       0.790998        21.5241 
  93   0.0000       0.792185        21.5564 
  94   0.0000       0.802458        21.8360 
  95   0.0000       0.827047        22.5051 
  96   0.0000       0.846524        23.0351 
  97   0.0000       0.870515        23.6879 
  98   0.0000       0.875391        23.8206 
  99   0.0000       0.889801        24.2127 
 100   0.0000       0.910200        24.7678 
 101   0.0000       0.934376        25.4257 
 102   0.0000       0.952846        25.9283 
 103   0.0000       0.981560        26.7096 
 104   0.0000       0.993693        27.0398 
 105   0.0000       1.013512        27.5791 
 106   0.0000       1.027316        27.9547 
 107   0.0000       1.064033        28.9538 
 108   0.0000       1.085463        29.5370 
 109   0.0000       1.091908        29.7123 
 110   0.0000       1.102058        29.9885 
 111   0.0000       1.126867        30.6636 
 112   0.0000       1.153942        31.4004 
 113   0.0000       1.171659        31.8824 
 114   0.0000       1.180459        32.1219 
 115   0.0000       1.204385        32.7730 
 116   0.0000       1.223426        33.2911 
 117   0.0000       1.241786        33.7907 
 118   0.0000       1.269165        34.5357 
 119   0.0000       1.282531        34.8994 
 120   0.0000       1.310710        35.6662 
 121   0.0000       1.323753        36.0212 
 122   0.0000       1.342684        36.5363 
 123   0.0000       1.381274        37.5864 
 124   0.0000       1.395698        37.9789 
 125   0.0000       1.407332        38.2955 
 126   0.0000       1.409846        38.3639 
 127   0.0000       1.440747        39.2047 
 128   0.0000       1.460731        39.7485 
 129   0.0000       1.481307        40.3084 
 130   0.0000       1.497914        40.7603 
 131   0.0000       1.523808        41.4649 
 132   0.0000       1.538065        41.8529 
 133   0.0000       1.603811        43.6419 
 134   0.0000       1.613499        43.9055 
 135   0.0000       1.643470        44.7211 
 136   0.0000       1.659392        45.1543 
 137   0.0000       1.669987        45.4427 
 138   0.0000       1.686267        45.8857 
 139   0.0000       1.720516        46.8176 
 140   0.0000       1.770514        48.1781 
 141   0.0000       1.778626        48.3989 
 142   0.0000       1.790440        48.7204 
 143   0.0000       1.806138        49.1475 
 144   0.0000       1.814158        49.3657 
 145   0.0000       1.823338        49.6156 
 146   0.0000       1.825724        49.6805 
 147   0.0000       1.836657        49.9780 
 148   0.0000       1.840372        50.0791 
 149   0.0000       1.861108        50.6433 
 150   0.0000       1.880457        51.1698 
 151   0.0000       1.894135        51.5420 
 152   0.0000       1.904350        51.8200 
 153   0.0000       1.907267        51.8994 
 154   0.0000       1.936900        52.7057 
 155   0.0000       1.946824        52.9758 
 156   0.0000       1.960625        53.3513 
 157   0.0000       1.997946        54.3669 
 158   0.0000       1.999600        54.4119 
 159   0.0000       2.055148        55.9234 
 160   0.0000       2.061777        56.1038 
 161   0.0000       2.091865        56.9225 
 162   0.0000       2.100017        57.1444 
 163   0.0000       2.118561        57.6490 
 164   0.0000       2.148591        58.4661 
 165   0.0000       2.178990        59.2933 
 166   0.0000       2.189910        59.5905 
 167   0.0000       2.206034        60.0292 
 168   0.0000       2.211502        60.1780 
 169   0.0000       2.241366        60.9907 
 170   0.0000       2.261210        61.5306 
 171   0.0000       2.284513        62.1648 
 172   0.0000       2.309401        62.8420 
 173   0.0000       2.321231        63.1639 
 174   0.0000       2.329158        63.3796 
 175   0.0000       2.361033        64.2470 
 176   0.0000       2.368656        64.4544 
 177   0.0000       2.384714        64.8914 
 178   0.0000       2.424767        65.9813 
 179   0.0000       2.440050        66.3971 
 180   0.0000       2.473469        67.3065 
 181   0.0000       2.495111        67.8954 
 182   0.0000       2.512643        68.3725 
 183   0.0000       2.540228        69.1231 
 184   0.0000       2.567347        69.8611 
 185   0.0000       2.579373        70.1883 
 186   0.0000       2.595497        70.6271 
 187   0.0000       2.618124        71.2428 
 188   0.0000       2.633785        71.6689 
 189   0.0000       2.650824        72.1326 
 190   0.0000       2.654741        72.2392 
 191   0.0000       2.670964        72.6806 
 192   0.0000       2.672501        72.7225 
 193   0.0000       2.710253        73.7497 
 194   0.0000       2.716486        73.9193 
 195   0.0000       2.722603        74.0858 
 196   0.0000       2.737699        74.4966 
 197   0.0000       2.778626        75.6103 
 198   0.0000       2.786074        75.8129 
 199   0.0000       2.810276        76.4715 
 200   0.0000       2.835043        77.1454 
 201   0.0000       2.842769        77.3557 
 202   0.0000       2.870285        78.1044 
 203   0.0000       2.883097        78.4531 
 204   0.0000       2.889739        78.6338 
 205   0.0000       2.901411        78.9514 
 206   0.0000       2.938173        79.9518 
 207   0.0000       2.948986        80.2460 
 208   0.0000       2.956008        80.4371 
 209   0.0000       2.970668        80.8360 
 210   0.0000       2.993758        81.4643 
 211   0.0000       3.006161        81.8018 
 212   0.0000       3.018999        82.1511 
 213   0.0000       3.032274        82.5124 
 214   0.0000       3.065444        83.4150 
 215   0.0000       3.083817        83.9149 
 216   0.0000       3.103966        84.4632 
 217   0.0000       3.122335        84.9631 
 218   0.0000       3.154974        85.8512 
 219   0.0000       3.169876        86.2567 
 220   0.0000       3.198450        87.0342 
 221   0.0000       3.200204        87.0820 
 222   0.0000       3.213968        87.4565 
 223   0.0000       3.249542        88.4245 
 224   0.0000       3.267169        88.9042 
 225   0.0000       3.300953        89.8235 
 226   0.0000       3.322835        90.4189 
 227   0.0000       3.329519        90.6008 
 228   0.0000       3.343791        90.9892 
 229   0.0000       3.371855        91.7528 
 230   0.0000       3.380225        91.9806 
 231   0.0000       3.400912        92.5435 
 232   0.0000       3.412645        92.8628 
 233   0.0000       3.423203        93.1501 
 234   0.0000       3.433384        93.4271 
 235   0.0000       3.442463        93.6742 
 236   0.0000       3.457567        94.0852 
 237   0.0000       3.469089        94.3987 
 238   0.0000       3.481063        94.7245 
 239   0.0000       3.498632        95.2026 
 240   0.0000       3.531199        96.0888 
 241   0.0000       3.538234        96.2802 
 242   0.0000       3.560998        96.8997 
 243   0.0000       3.567337        97.0722 
 244   0.0000       3.575432        97.2925 
 245   0.0000       3.609750        98.2263 
 246   0.0000       3.626275        98.6759 
 247   0.0000       3.635667        98.9315 
 248   0.0000       3.647125        99.2433 
 249   0.0000       3.664149        99.7066 
 250   0.0000       3.672272        99.9276 
 251   0.0000       3.692906       100.4891 
 252   0.0000       3.702516       100.7506 
 253   0.0000       3.711370       100.9915 
 254   0.0000       3.743492       101.8656 
 255   0.0000       3.750176       102.0475 
 256   0.0000       3.756292       102.2139 
 257   0.0000       3.783370       102.9507 
 258   0.0000       3.796583       103.3103 
 259   0.0000       3.815698       103.8304 
 260   0.0000       3.825565       104.0989 
 261   0.0000       3.865154       105.1762 
 262   0.0000       3.889409       105.8362 
 263   0.0000       3.900919       106.1494 
 264   0.0000       3.913009       106.4784 
 265   0.0000       3.968399       107.9856 
 266   0.0000       3.979176       108.2789 
 267   0.0000       3.991433       108.6124 
 268   0.0000       4.006911       109.0336 
 269   0.0000       4.040462       109.9466 
 270   0.0000       4.056521       110.3836 
 271   0.0000       4.076884       110.9377 
 272   0.0000       4.089880       111.2913 
 273   0.0000       4.131404       112.4212 
 274   0.0000       4.184519       113.8665 
 275   0.0000       4.207957       114.5043 
 276   0.0000       4.225759       114.9887 
 277   0.0000       4.235952       115.2661 
 278   0.0000       4.273031       116.2751 
 279   0.0000       4.312774       117.3566 
 280   0.0000       4.341053       118.1261 
 281   0.0000       4.349223       118.3484 
 282   0.0000       4.375007       119.0500 
 283   0.0000       4.434500       120.6689 
 284   0.0000       4.439113       120.7944 
 285   0.0000       4.518117       122.9442 
 286   0.0000       4.531269       123.3021 
 287   0.0000       4.581740       124.6755 
 288   0.0000       4.597168       125.0953 
 289   0.0000       4.622961       125.7972 
 290   0.0000       4.659730       126.7977 
 291   0.0000       4.692130       127.6793 
 292   0.0000       4.726477       128.6140 
 293   0.0000       4.735471       128.8587 
 294   0.0000       4.786042       130.2348 
 295   0.0000       4.795842       130.5015 
 296   0.0000       4.835386       131.5775 
 297   0.0000       4.883533       132.8877 
 298   0.0000       4.915165       133.7484 
 299   0.0000       4.943929       134.5311 
 300   0.0000       4.995255       135.9278 
 301   0.0000       5.059547       137.6773 
 302   0.0000       5.062060       137.7457 
 303   0.0000       5.132725       139.6686 
 304   0.0000       5.137054       139.7863 
 305   0.0000       5.179446       140.9399 
 306   0.0000       5.193767       141.3296 
 307   0.0000       5.218268       141.9963 
 308   0.0000       5.238278       142.5408 
 309   0.0000       5.249947       142.8583 
 310   0.0000       5.323249       144.8530 
 311   0.0000       5.382088       146.4541 
 312   0.0000       5.451561       148.3445 
 313   0.0000       5.464304       148.6913 
 314   0.0000       5.555669       151.1774 
 315   0.0000       5.572488       151.6351 
 316   0.0000       5.625747       153.0844 
 317   0.0000       5.660827       154.0389 
 318   0.0000       5.770966       157.0360 
 319   0.0000       5.788466       157.5122 
 320   0.0000       5.906936       160.7359 
 321   0.0000       5.964748       162.3091 
 322   0.0000       6.013775       163.6431 
 323   0.0000       6.029241       164.0640 
 324   0.0000       6.137073       166.9982 
 325   0.0000       6.238139       169.7484 
 326   0.0000       6.323714       172.0770 
 327   0.0000       6.437310       175.1681 
 328   0.0000       6.552903       178.3135 
 329   0.0000       6.798081       184.9852 
 330   0.0000       6.913654       188.1301 
 331   0.0000       7.082221       192.7170 
 332   0.0000       7.245776       197.1676 
 333   0.0000       7.343425       199.8248 
 334   0.0000       7.536510       205.0789 
 335   0.0000       7.772295       211.4949 
 336   0.0000      23.420344       637.3000 
 337   0.0000      23.487659       639.1317 
 338   0.0000      23.526702       640.1941 
 339   0.0000      23.694311       644.7550 
 340   0.0000      24.065514       654.8559 
 341   0.0000      24.325228       661.9231 
 342   0.0000      24.448274       665.2714 
 343   0.0000      33.677673       916.4161 
 344   0.0000      45.597388      1240.7680 

                    ********************************
                    * MULLIKEN POPULATION ANALYSIS *
                    ********************************

-----------------------
MULLIKEN ATOMIC CHARGES
-----------------------
   0 C :   -0.292810
   1 C :   -0.224017
   2 C :    0.061884
   3 C :   -0.109252
   4 N :   -0.341422
   5 C :    0.131684
   6 C :   -0.373380
   7 C :    0.096173
   8 O :   -0.536243
   9 H :    0.100340
  10 H :    0.102500
  11 H :    0.100052
  12 H :    0.086708
  13 H :    0.099318
  14 H :    0.139773
  15 H :    0.242852
  16 H :    0.115122
  17 H :    0.148029
  18 H :    0.111060
  19 H :    0.341628
Sum of atomic charges:   -0.0000000

--------------------------------
MULLIKEN REDUCED ORBITAL CHARGES
--------------------------------
  0 C s       :     3.200356  s :     3.200356
      pz      :     1.050755  p :     3.013312
      px      :     1.036661
      py      :     0.925897
      dz2     :     0.013181  d :     0.074613
      dxz     :     0.011074
      dyz     :     0.016587
      dx2y2   :     0.016685
      dxy     :     0.017085
      f0      :     0.000327  f :     0.004529
      f+1     :     0.001017
      f-1     :     0.000681
      f+2     :     0.000492
      f-2     :     0.000171
      f+3     :     0.000735
      f-3     :     0.001107
  1 C s       :     3.205787  s :     3.205787
      pz      :     1.054767  p :     2.899606
      px      :     0.903471
      py      :     0.941368
      dz2     :     0.013555  d :     0.112210
      dxz     :     0.023021
      dyz     :     0.019636
      dx2y2   :     0.025929
      dxy     :     0.030068
      f0      :     0.000664  f :     0.006413
      f+1     :     0.001065
      f-1     :     0.000704
      f+2     :     0.000731
      f-2     :     0.000423
      f+3     :     0.001365
      f-3     :     0.001460
  2 C s       :     3.125253  s :     3.125253
      pz      :     0.883261  p :     2.666244
      px      :     0.784187
      py      :     0.998796
      dz2     :     0.019816  d :     0.134986
      dxz     :     0.047008
      dyz     :     0.025653
      dx2y2   :     0.021295
      dxy     :     0.021215
      f0      :     0.001576  f :     0.011633
      f+1     :     0.001940
      f-1     :     0.001074
      f+2     :     0.002071
      f-2     :     0.001766
      f+3     :     0.001578
      f-3     :     0.001628
  3 C s       :     3.145107  s :     3.145107
      pz      :     1.016418  p :     2.834125
      px      :     0.795613
      py      :     1.022093
      dz2     :     0.025798  d :     0.117567
      dxz     :     0.027561
      dyz     :     0.012662
      dx2y2   :     0.027208
      dxy     :     0.024338
      f0      :     0.002251  f :     0.012454
      f+1     :     0.001967
      f-1     :     0.001037
      f+2     :     0.001949
      f-2     :     0.001501
      f+3     :     0.002105
      f-3     :     0.001645
  4 N s       :     3.407942  s :     3.407942
      pz      :     1.152812  p :     3.848866
      px      :     1.185619
      py      :     1.510435
      dz2     :     0.018134  d :     0.079099
      dxz     :     0.021755
      dyz     :     0.017979
      dx2y2   :     0.009023
      dxy     :     0.012208
      f0      :     0.001006  f :     0.005515
      f+1     :     0.000818
      f-1     :     0.000830
      f+2     :     0.000512
      f-2     :     0.000649
      f+3     :     0.000773
      f-3     :     0.000927
  5 C s       :     3.076541  s :     3.076541
      pz      :     0.692287  p :     2.623888
      px      :     0.924353
      py      :     1.007248
      dz2     :     0.046437  d :     0.153080
      dxz     :     0.029321
      dyz     :     0.024231
      dx2y2   :     0.026412
      dxy     :     0.026679
      f0      :     0.002868  f :     0.014806
      f+1     :     0.003115
      f-1     :     0.002585
      f+2     :     0.001341
      f-2     :     0.001074
      f+3     :     0.002266
      f-3     :     0.001557
  6 C s       :     3.289754  s :     3.289754
      pz      :     1.034038  p :     3.006464
      px      :     0.946103
      py      :     1.026324
      dz2     :     0.019871  d :     0.072788
      dxz     :     0.010333
      dyz     :     0.005077
      dx2y2   :     0.016454
      dxy     :     0.021054
      f0      :     0.000867  f :     0.004373
      f+1     :     0.000828
      f-1     :     0.000281
      f+2     :     0.000460
      f-2     :     0.000427
      f+3     :     0.000624
      f-3     :     0.000888
  7 C s       :     3.012284  s :     3.012284
      pz      :     0.731337  p :     2.683663
      px      :     1.006881
      py      :     0.945444
      dz2     :     0.047785  d :     0.190646
      dxz     :     0.052434
      dyz     :     0.036146
      dx2y2   :     0.026069
      dxy     :     0.028213
      f0      :     0.004199  f :     0.017234
      f+1     :     0.002975
      f-1     :     0.003015
      f+2     :     0.002022
      f-2     :     0.002124
      f+3     :     0.001804
      f-3     :     0.001095
  8 O s       :     3.792857  s :     3.792857
      pz      :     1.464698  p :     4.706330
      px      :     1.395158
      py      :     1.846475
      dz2     :     0.014434  d :     0.035171
      dxz     :     0.003535
      dyz     :     0.006462
      dx2y2   :     0.009069
      dxy     :     0.001671
      f0      :     0.000331  f :     0.001884
      f+1     :     0.000348
      f-1     :     0.000364
      f+2     :     0.000155
      f-2     :     0.000088
      f+3     :     0.000524
      f-3     :     0.000075
  9 H s       :     0.878121  s :     0.878121
      pz      :     0.003592  p :     0.021539
      px      :     0.012732
      py      :     0.005215
 10 H s       :     0.875696  s :     0.875696
      pz      :     0.011491  p :     0.021804
      px      :     0.005813
      py      :     0.004500
 11 H s       :     0.878179  s :     0.878179
      pz      :     0.009176  p :     0.021769
      px      :     0.006352
      py      :     0.006241
 12 H s       :     0.891663  s :     0.891663
      pz      :     0.008323  p :     0.021628
      px      :     0.007474
      py      :     0.005832
 13 H s       :     0.878660  s :     0.878660
      pz      :     0.011768  p :     0.022022
      px      :     0.005976
      py      :     0.004278
 14 H s       :     0.837152  s :     0.837152
      pz      :     0.015084  p :     0.023075
      px      :     0.003498
      py      :     0.004492
 15 H s       :     0.717878  s :     0.717878
      pz      :     0.011020  p :     0.039269
      px      :     0.014815
      py      :     0.013435
 16 H s       :     0.863345  s :     0.863345
      pz      :     0.004093  p :     0.021533
      px      :     0.010448
      py      :     0.006992
 17 H s       :     0.829705  s :     0.829705
      pz      :     0.014307  p :     0.022265
      px      :     0.003925
      py      :     0.004034
 18 H s       :     0.867535  s :     0.867535
      pz      :     0.003604  p :     0.021405
      px      :     0.004446
      py      :     0.013356
 19 H s       :     0.612195  s :     0.612195
      pz      :     0.010671  p :     0.046177
      px      :     0.020408
      py      :     0.015099


                     *******************************
                     * LOEWDIN POPULATION ANALYSIS *
                     *******************************

----------------------
LOEWDIN ATOMIC CHARGES
----------------------
   0 C :   -0.280970
   1 C :   -0.240254
   2 C :   -0.182746
   3 C :   -0.194382
   4 N :    0.162166
   5 C :   -0.226934
   6 C :   -0.249848
   7 C :   -0.248072
   8 O :    0.012054
   9 H :    0.106313
  10 H :    0.110538
  11 H :    0.111640
  12 H :    0.125129
  13 H :    0.133447
  14 H :    0.126815
  15 H :    0.183468
  16 H :    0.116620
  17 H :    0.132938
  18 H :    0.116083
  19 H :    0.185993

-------------------------------
LOEWDIN REDUCED ORBITAL CHARGES
-------------------------------
  0 C s       :     2.831703  s :     2.831703
      pz      :     1.064306  p :     3.147088
      px      :     1.053155
      py      :     1.029627
      dz2     :     0.045279  d :     0.277811
      dxz     :     0.033033
      dyz     :     0.070220
      dx2y2   :     0.058027
      dxy     :     0.071252
      f0      :     0.002076  f :     0.024368
      f+1     :     0.003213
      f-1     :     0.003544
      f+2     :     0.003472
      f-2     :     0.002773
      f+3     :     0.005081
      f-3     :     0.004209
  1 C s       :     2.763835  s :     2.763835
      pz      :     1.011989  p :     3.024780
      px      :     0.995299
      py      :     1.017492
      dz2     :     0.051038  d :     0.413057
      dxz     :     0.086443
      dyz     :     0.069401
      dx2y2   :     0.101451
      dxy     :     0.104724
      f0      :     0.004088  f :     0.038581
      f+1     :     0.004334
      f-1     :     0.003797
      f+2     :     0.004901
      f-2     :     0.005137
      f+3     :     0.009926
      f-3     :     0.006399
  2 C s       :     2.701758  s :     2.701758
      pz      :     1.000242  p :     2.901657
      px      :     0.975299
      py      :     0.926116
      dz2     :     0.110972  d :     0.520150
      dxz     :     0.157422
      dyz     :     0.093670
      dx2y2   :     0.080987
      dxy     :     0.077099
      f0      :     0.011007  f :     0.059180
      f+1     :     0.009536
      f-1     :     0.004630
      f+2     :     0.011691
      f-2     :     0.011193
      f+3     :     0.005851
      f-3     :     0.005272
  3 C s       :     2.757229  s :     2.757229
      pz      :     1.006311  p :     2.889333
      px      :     0.910962
      py      :     0.972060
      dz2     :     0.125234  d :     0.480256
      dxz     :     0.111927
      dyz     :     0.038624
      dx2y2   :     0.104695
      dxy     :     0.099776
      f0      :     0.010585  f :     0.067563
      f+1     :     0.012208
      f-1     :     0.005050
      f+2     :     0.012038
      f-2     :     0.009956
      f+3     :     0.008786
      f-3     :     0.008941
  4 N s       :     2.893936  s :     2.893936
      pz      :     1.152942  p :     3.670692
      px      :     1.171394
      py      :     1.346356
      dz2     :     0.054738  d :     0.255495
      dxz     :     0.082428
      dyz     :     0.055031
      dx2y2   :     0.025955
      dxy     :     0.037342
      f0      :     0.002749  f :     0.017711
      f+1     :     0.004630
      f-1     :     0.003200
      f+2     :     0.001517
      f-2     :     0.001176
      f+3     :     0.002066
      f-3     :     0.002372
  5 C s       :     2.705764  s :     2.705764
      pz      :     0.877636  p :     2.842582
      px      :     1.022893
      py      :     0.942053
      dz2     :     0.166478  d :     0.599219
      dxz     :     0.153373
      dyz     :     0.106887
      dx2y2   :     0.089909
      dxy     :     0.082572
      f0      :     0.016030  f :     0.079369
      f+1     :     0.021006
      f-1     :     0.015659
      f+2     :     0.005481
      f-2     :     0.006993
      f+3     :     0.007562
      f-3     :     0.006639
  6 C s       :     2.812507  s :     2.812507
      pz      :     1.054603  p :     3.132536
      px      :     1.028860
      py      :     1.049074
      dz2     :     0.077967  d :     0.279330
      dxz     :     0.044261
      dyz     :     0.017428
      dx2y2   :     0.061773
      dxy     :     0.077901
      f0      :     0.002886  f :     0.025475
      f+1     :     0.004171
      f-1     :     0.002533
      f+2     :     0.003914
      f-2     :     0.004709
      f+3     :     0.003159
      f-3     :     0.004104
  7 C s       :     2.693374  s :     2.693374
      pz      :     0.839700  p :     2.773191
      px      :     1.010917
      py      :     0.922573
      dz2     :     0.203078  d :     0.683501
      dxz     :     0.165816
      dyz     :     0.144136
      dx2y2   :     0.085527
      dxy     :     0.084943
      f0      :     0.026600  f :     0.098007
      f+1     :     0.018612
      f-1     :     0.018299
      f+2     :     0.011291
      f-2     :     0.013282
      f+3     :     0.005398
      f-3     :     0.004524
  8 O s       :     3.328253  s :     3.328253
      pz      :     1.475817  p :     4.583491
      px      :     1.367807
      py      :     1.739866
      dz2     :     0.025803  d :     0.071644
      dxz     :     0.012728
      dyz     :     0.015146
      dx2y2   :     0.015929
      dxy     :     0.002038
      f0      :     0.000993  f :     0.004559
      f+1     :     0.001250
      f-1     :     0.000908
      f+2     :     0.000330
      f-2     :     0.000265
      f+3     :     0.000790
      f-3     :     0.000023
  9 H s       :     0.834190  s :     0.834190
      pz      :     0.012472  p :     0.059497
      px      :     0.032564
      py      :     0.014461
 10 H s       :     0.829165  s :     0.829165
      pz      :     0.030017  p :     0.060297
      px      :     0.017115
      py      :     0.013165
 11 H s       :     0.828428  s :     0.828428
      pz      :     0.025005  p :     0.059933
      px      :     0.018378
      py      :     0.016550
 12 H s       :     0.818941  s :     0.818941
      pz      :     0.022350  p :     0.055930
      px      :     0.017842
      py      :     0.015738
 13 H s       :     0.809921  s :     0.809921
      pz      :     0.028810  p :     0.056632
      px      :     0.015153
      py      :     0.012670
 14 H s       :     0.810735  s :     0.810735
      pz      :     0.036153  p :     0.062449
      px      :     0.011232
      py      :     0.015065
 15 H s       :     0.707702  s :     0.707702
      pz      :     0.030380  p :     0.108830
      px      :     0.040205
      py      :     0.038244
 16 H s       :     0.824210  s :     0.824210
      pz      :     0.013759  p :     0.059170
      px      :     0.025369
      py      :     0.020042
 17 H s       :     0.806653  s :     0.806653
      pz      :     0.034845  p :     0.060409
      px      :     0.012649
      py      :     0.012916
 18 H s       :     0.824876  s :     0.824876
      pz      :     0.012515  p :     0.059041
      px      :     0.012789
      py      :     0.033737
 19 H s       :     0.656365  s :     0.656365
      pz      :     0.030559  p :     0.157642
      px      :     0.082814
      py      :     0.044269


                      *****************************
                      * MAYER POPULATION ANALYSIS *
                      *****************************

  NA   - Mulliken gross atomic population
  ZA   - Total nuclear charge
  QA   - Mulliken gross atomic charge
  VA   - Mayer's total valence
  BVA  - Mayer's bonded valence
  FA   - Mayer's free valence

  ATOM       NA         ZA         QA         VA         BVA        FA
  0 C      6.2928     6.0000    -0.2928     3.8541     3.8541     0.0000
  1 C      6.2240     6.0000    -0.2240     3.9102     3.9102    -0.0000
  2 C      5.9381     6.0000     0.0619     3.5448     3.5448     0.0000
  3 C      6.1093     6.0000    -0.1093     3.9579     3.9579     0.0000
  4 N      7.3414     7.0000    -0.3414     3.2281     3.2281     0.0000
  5 C      5.8683     6.0000     0.1317     3.6667     3.6667    -0.0000
  6 C      6.3734     6.0000    -0.3734     3.9019     3.9019    -0.0000
  7 C      5.9038     6.0000     0.0962     4.1015     4.1015    -0.0000
  8 O      8.5362     8.0000    -0.5362     1.8833     1.8833    -0.0000
  9 H      0.8997     1.0000     0.1003     0.9706     0.9706     0.0000
 10 H      0.8975     1.0000     0.1025     0.9850     0.9850     0.0000
 11 H      0.8999     1.0000     0.1001     0.9833     0.9833     0.0000
 12 H      0.9133     1.0000     0.0867     0.9635     0.9635    -0.0000
 13 H      0.9007     1.0000     0.0993     0.9777     0.9777    -0.0000
 14 H      0.8602     1.0000     0.1398     0.9832     0.9832     0.0000
 15 H      0.7571     1.0000     0.2429     0.9446     0.9446     0.0000
 16 H      0.8849     1.0000     0.1151     0.9575     0.9575    -0.0000
 17 H      0.8520     1.0000     0.1480     0.9699     0.9699     0.0000
 18 H      0.8889     1.0000     0.1111     0.9592     0.9592    -0.0000
 19 H      0.6584     1.0000     0.3416     0.8931     0.8931    -0.0000

  Mayer bond orders larger than 0.1
B(  0-C ,  1-C ) :   0.9702 B(  0-C ,  9-H ) :   0.9874 B(  0-C , 10-H ) :   0.9836 
B(  0-C , 11-H ) :   0.9860 B(  1-C ,  2-C ) :   0.8783 B(  1-C , 12-H ) :   1.0061 
B(  1-C , 13-H ) :   1.0098 B(  2-C ,  3-C ) :   1.6181 B(  2-C ,  7-C ) :   1.2757 
B(  3-C ,  4-N ) :   1.2264 B(  3-C , 14-H ) :   0.9550 B(  4-N ,  5-C ) :   1.1228 
B(  4-N , 15-H ) :   0.9226 B(  5-C ,  6-C ) :   0.8833 B(  5-C ,  7-C ) :   1.7251 
B(  6-C , 16-H ) :   0.9879 B(  6-C , 17-H ) :   1.0009 B(  6-C , 18-H ) :   0.9906 
B(  7-C ,  8-O ) :   1.0196 B(  8-O , 19-H ) :   0.8775 

-------
TIMINGS
-------

Total SCF time: 0 days 0 hours 2 min 43 sec 

Total time                  ....     163.545 sec
Sum of individual times     ....     168.027 sec  (102.7%)

Fock matrix formation       ....     161.802 sec  ( 98.9%)
Diagonalization             ....       0.825 sec  (  0.5%)
Density matrix formation    ....       0.048 sec  (  0.0%)
Population analysis         ....       0.175 sec  (  0.1%)
Initial guess               ....       3.128 sec  (  1.9%)
Orbital Transformation      ....       0.000 sec  (  0.0%)
Orbital Orthonormalization  ....       0.000 sec  (  0.0%)
DIIS solution               ....       0.255 sec  (  0.2%)
SOSCF solution              ....       0.291 sec  (  0.2%)

   <<< Auxbasis replaced with dsgdb9nsd_032417.AUXC.tmp (Dim=849) >>> 


------------------------------------------------------------------------------
                              ORCA MP2 CALCULATION
------------------------------------------------------------------------------

Freezing NCore=18 chemical core electrons

   <<< Use J-auxbasis for calculation of Separable RI-J derivative contributions dsgdb9nsd_032417.AUXJ.tmp (Dim=877) >>> 


---------------------
RI-MP2 ENERGY+DENSITY
---------------------
Dimension of the basis                    ...  345
Memory devoted to MP2                     ... 2000 MB   
Data format for buffers                   ... DOUBLE
Compression type for matrix containers    ... UNCOMPRESSED
Overall scaling of the MP2 energy         ...   1.000e+00 Eh
Calculating two index integrals           ... done (    0.018 sec)
Cholesky decomposition of V**-1           ... done (    0.127 sec)

-----------------
RI-TRANSFORMATION (AUX index driven)
-----------------

Dimension of the orbital-basis         ... 345
Dimension of the aux-basis             ... 849
Transformation of internal MOs         ...    0-  33
Transformation of internal/external MOs...    0-  33 to   34- 344
Number Format for Storage              ... Double (8 Byte)
Integral mode                          ... Direct

First Phase: integral generation and transformation of MO indices
  Aux angular momentum 0               ... done (    0.898 sec)
  Aux angular momentum 1               ... done (    1.266 sec)
  Aux angular momentum 2               ... done (    1.338 sec)
  Aux angular momentum 3               ... done (    1.016 sec)
  Aux angular momentum 4               ... done (    0.450 sec)
Closing buffer VIJ ( 0.00 GB; CompressionRatio= 1.94)
Closing buffer VIA ( 0.07 GB; CompressionRatio= 1.00)
  Phase 1 completed in     5.069 sec
Second Phase: sorting and transformation of aux index

IJ-Transformation
Memory available                       ... 1986 MB 
Max. # MO pairs treated in a batch     ... 34    
# of internal orbitals                 ... 34
# batches for internal orbitals        ... 1
Closing buffer IJV ( 0.00 GB; CompressionRatio= 1.00)
(ij|v) transformation done in     0.219 sec

IA-Transformation
Memory available                       ... 1986 MB 
Max. # MO pairs treated in a batch     ... 34    
# of internal orbitals                 ... 34
# batches for internal orbitals        ... 1
Closing buffer IAV ( 0.07 GB; CompressionRatio= 1.00)
(ia|v) transformation done in     1.602 sec

  Phase 2 completed in     1.843 sec
RI-Integral transformation completed in     6.912 sec
Opening buffers                              ... done
Frozen core precalculation                   ... done

Starting loop over batches of integrals:

Operator 0  - window                       ... (  9- 33)x( 34-344)
Operator 0  - Memory available             ...  2000 MB
Operator 0  - Memory needed per MO         ...   4.0 MB
Operator 0  - Number of orbitals per batch ... 25
Operator 0  - Number of batches            ... 1

OPERATOR  0   PASS   0:  MOs     9 ...   33
  Reading integrals       ... ok
  Internal MO  11
  Internal MO  14
  Internal MO  17
  Internal MO  20
  Internal MO  23
  Internal MO  26
  Internal MO  29
  Internal MO  32
Time spent in pair loops =    40.436 sec
Deleting buffer (Ka|jb)[aa] ...done

-----------------------------------------------
 RI-MP2 CORRELATION ENERGY:     -1.574714258 Eh
-----------------------------------------------


---------------------
MP2 DENSITY FORMATION
---------------------

Completing the external part of the density      ... done
Storing the unrelaxed density                    ... done

Calculating G(D)                                 ... done
Completing the Lagrangian                        ... done
Solving the Z-vector equations                   ... 

------------------------------------------------------------------------------
                           ORCA CP-SCF CALCULATION
------------------------------------------------------------------------------

Input orbitals are from        ... dsgdb9nsd_032417.gbw
Input Perturbation             ... dsgdb9nsd_032417.pin.tmp
Wavefunction output            ... dsgdb9nsd_032417.pout.tmp
Perturbation mode              ... Real perturbation
Solver                         ... POPLE
Max. number of iterations      ... 128
Convergence tolerance          ... 1.000e-08
Integral handling              ... Direct
Number of perturbations        ... 1
Number of operators            ... 1
Orbital ranges used for CP-SCF:
 Operator 0:  Orbitals   0... 33  to  34...344
Variables per vector in CP-SCF ... 10574
Number of vectors sought       ... 1
     CP-SCF ITERATION   0: 
     CP-SCF ITERATION   1:      0.002027433
     CP-SCF ITERATION   2:      0.000472303
     CP-SCF ITERATION   3:      0.000069738
     CP-SCF ITERATION   4:      0.000005685
     CP-SCF ITERATION   5:      0.000000743
     CP-SCF ITERATION   6:      0.000000055
     CP-SCF ITERATION   7:      0.000000005
done
Finalizing the relaxed density                   ... done
Transforming P to the AO basis                   ... done
Storing the relaxed density                      ... done

                *********************************************
                * UNRELAXED MP2 DENSITY POPULATION ANALYSIS *
                *********************************************

------------------------------------------------------------------------------
                           ORCA POPULATION ANALYSIS
------------------------------------------------------------------------------
Input electron density              ... dsgdb9nsd_032417.pmp2ur
BaseName (.gbw .S,...)              ... dsgdb9nsd_032417

                    ********************************
                    * MULLIKEN POPULATION ANALYSIS *
                    ********************************

-----------------------
MULLIKEN ATOMIC CHARGES
-----------------------
   0 C :   -0.301407
   1 C :   -0.232886
   2 C :    0.057755
   3 C :   -0.119158
   4 N :   -0.329930
   5 C :    0.124240
   6 C :   -0.382750
   7 C :    0.090467
   8 O :   -0.522089
   9 H :    0.103657
  10 H :    0.105235
  11 H :    0.103263
  12 H :    0.090576
  13 H :    0.103083
  14 H :    0.143114
  15 H :    0.244452
  16 H :    0.118187
  17 H :    0.150902
  18 H :    0.114134
  19 H :    0.339152
Sum of atomic charges:   -0.0000000

--------------------------------
MULLIKEN REDUCED ORBITAL CHARGES
--------------------------------
  0 C s       :     3.196895  s :     3.196895
      pz      :     1.044895  p :     2.996347
      px      :     1.031413
      py      :     0.920039
      dz2     :     0.018137  d :     0.099961
      dxz     :     0.016575
      dyz     :     0.021966
      dx2y2   :     0.020707
      dxy     :     0.022576
      f0      :     0.000891  f :     0.008204
      f+1     :     0.001476
      f-1     :     0.001192
      f+2     :     0.001063
      f-2     :     0.000701
      f+3     :     0.001308
      f-3     :     0.001573
  1 C s       :     3.203924  s :     3.203924
      pz      :     1.049215  p :     2.881927
      px      :     0.897832
      py      :     0.934880
      dz2     :     0.018498  d :     0.136694
      dxz     :     0.028653
      dyz     :     0.025339
      dx2y2   :     0.029510
      dxy     :     0.034694
      f0      :     0.001251  f :     0.010341
      f+1     :     0.001547
      f-1     :     0.001224
      f+2     :     0.001343
      f-2     :     0.001006
      f+3     :     0.002017
      f-3     :     0.001954
  2 C s       :     3.124762  s :     3.124762
      pz      :     0.877211  p :     2.642815
      px      :     0.777136
      py      :     0.988468
      dz2     :     0.025218  d :     0.158964
      dxz     :     0.049971
      dyz     :     0.031070
      dx2y2   :     0.026423
      dxy     :     0.026281
      f0      :     0.002307  f :     0.015704
      f+1     :     0.002497
      f-1     :     0.001596
      f+2     :     0.002674
      f-2     :     0.002389
      f+3     :     0.002129
      f-3     :     0.002112
  3 C s       :     3.144288  s :     3.144288
      pz      :     1.009349  p :     2.820308
      px      :     0.794164
      py      :     1.016795
      dz2     :     0.030254  d :     0.138587
      dxz     :     0.030601
      dyz     :     0.017918
      dx2y2   :     0.031193
      dxy     :     0.028620
      f0      :     0.002861  f :     0.015975
      f+1     :     0.002577
      f-1     :     0.001594
      f+2     :     0.002428
      f-2     :     0.001985
      f+3     :     0.002492
      f-3     :     0.002037
  4 N s       :     3.403568  s :     3.403568
      pz      :     1.141144  p :     3.806329
      px      :     1.173516
      py      :     1.491668
      dz2     :     0.024005  d :     0.111138
      dxz     :     0.028268
      dyz     :     0.024453
      dx2y2   :     0.015575
      dxy     :     0.018837
      f0      :     0.001502  f :     0.008895
      f+1     :     0.001376
      f-1     :     0.001310
      f+2     :     0.000999
      f-2     :     0.001128
      f+3     :     0.001220
      f-3     :     0.001360
  5 C s       :     3.077140  s :     3.077140
      pz      :     0.690365  p :     2.607369
      px      :     0.916835
      py      :     1.000169
      dz2     :     0.048665  d :     0.172623
      dxz     :     0.032871
      dyz     :     0.029023
      dx2y2   :     0.030928
      dxy     :     0.031137
      f0      :     0.003317  f :     0.018627
      f+1     :     0.003896
      f-1     :     0.003043
      f+2     :     0.001891
      f-2     :     0.001676
      f+3     :     0.002748
      f-3     :     0.002057
  6 C s       :     3.287803  s :     3.287803
      pz      :     1.027504  p :     2.988359
      px      :     0.940116
      py      :     1.020738
      dz2     :     0.025166  d :     0.098466
      dxz     :     0.014867
      dyz     :     0.011089
      dx2y2   :     0.021231
      dxy     :     0.026113
      f0      :     0.001365  f :     0.008123
      f+1     :     0.001421
      f-1     :     0.000811
      f+2     :     0.000954
      f-2     :     0.000965
      f+3     :     0.001182
      f-3     :     0.001424
  7 C s       :     3.009534  s :     3.009534
      pz      :     0.731867  p :     2.669078
      px      :     0.998850
      py      :     0.938361
      dz2     :     0.050642  d :     0.209900
      dxz     :     0.055419
      dyz     :     0.040178
      dx2y2   :     0.030588
      dxy     :     0.033073
      f0      :     0.004796  f :     0.021021
      f+1     :     0.003611
      f-1     :     0.003503
      f+2     :     0.002599
      f-2     :     0.002715
      f+3     :     0.002252
      f-3     :     0.001545
  8 O s       :     3.787358  s :     3.787358
      pz      :     1.451212  p :     4.667045
      px      :     1.384660
      py      :     1.831173
      dz2     :     0.019726  d :     0.063094
      dxz     :     0.009240
      dyz     :     0.012150
      dx2y2   :     0.014498
      dxy     :     0.007480
      f0      :     0.000739  f :     0.004592
      f+1     :     0.000747
      f-1     :     0.000758
      f+2     :     0.000540
      f-2     :     0.000466
      f+3     :     0.000887
      f-3     :     0.000455
  9 H s       :     0.871650  s :     0.871650
      pz      :     0.004717  p :     0.024693
      px      :     0.013652
      py      :     0.006324
 10 H s       :     0.869802  s :     0.869802
      pz      :     0.012446  p :     0.024962
      px      :     0.006892
      py      :     0.005624
 11 H s       :     0.871833  s :     0.871833
      pz      :     0.010174  p :     0.024904
      px      :     0.007413
      py      :     0.007317
 12 H s       :     0.884566  s :     0.884566
      pz      :     0.009400  p :     0.024858
      px      :     0.008542
      py      :     0.006916
 13 H s       :     0.871742  s :     0.871742
      pz      :     0.012721  p :     0.025175
      px      :     0.007067
      py      :     0.005386
 14 H s       :     0.830769  s :     0.830769
      pz      :     0.015872  p :     0.026117
      px      :     0.004622
      py      :     0.005622
 15 H s       :     0.714447  s :     0.714447
      pz      :     0.011652  p :     0.041100
      px      :     0.015356
      py      :     0.014093
 16 H s       :     0.857181  s :     0.857181
      pz      :     0.005200  p :     0.024631
      px      :     0.011413
      py      :     0.008019
 17 H s       :     0.823869  s :     0.823869
      pz      :     0.015119  p :     0.025229
      px      :     0.005003
      py      :     0.005106
 18 H s       :     0.861345  s :     0.861345
      pz      :     0.004726  p :     0.024520
      px      :     0.005544
      py      :     0.014250
 19 H s       :     0.612981  s :     0.612981
      pz      :     0.011489  p :     0.047866
      px      :     0.020380
      py      :     0.015998


                     *******************************
                     * LOEWDIN POPULATION ANALYSIS *
                     *******************************

----------------------
LOEWDIN ATOMIC CHARGES
----------------------
   0 C :   -0.286952
   1 C :   -0.243686
   2 C :   -0.183295
   3 C :   -0.200083
   4 N :    0.166035
   5 C :   -0.228701
   6 C :   -0.256126
   7 C :   -0.252079
   8 O :    0.020774
   9 H :    0.108182
  10 H :    0.112313
  11 H :    0.113542
  12 H :    0.126743
  13 H :    0.135103
  14 H :    0.128626
  15 H :    0.184267
  16 H :    0.118416
  17 H :    0.134698
  18 H :    0.117861
  19 H :    0.184360

-------------------------------
LOEWDIN REDUCED ORBITAL CHARGES
-------------------------------
  0 C s       :     2.829802  s :     2.829802
      pz      :     1.056868  p :     3.122968
      px      :     1.045891
      py      :     1.020209
      dz2     :     0.050962  d :     0.304488
      dxz     :     0.038793
      dyz     :     0.075017
      dx2y2   :     0.063703
      dxy     :     0.076013
      f0      :     0.002754  f :     0.029693
      f+1     :     0.003999
      f-1     :     0.004358
      f+2     :     0.004163
      f-2     :     0.003474
      f+3     :     0.005790
      f-3     :     0.005155
  1 C s       :     2.762248  s :     2.762248
      pz      :     1.004739  p :     2.998547
      px      :     0.986306
      py      :     1.007502
      dz2     :     0.056980  d :     0.438174
      dxz     :     0.091407
      dyz     :     0.074296
      dx2y2   :     0.106499
      dxy     :     0.108991
      f0      :     0.004843  f :     0.044717
      f+1     :     0.005274
      f-1     :     0.004630
      f+2     :     0.005684
      f-2     :     0.005910
      f+3     :     0.010794
      f-3     :     0.007583
  2 C s       :     2.699749  s :     2.699749
      pz      :     0.989773  p :     2.870853
      px      :     0.964610
      py      :     0.916470
      dz2     :     0.116064  d :     0.546126
      dxz     :     0.161989
      dyz     :     0.098644
      dx2y2   :     0.086555
      dxy     :     0.082874
      f0      :     0.011973  f :     0.066568
      f+1     :     0.011228
      f-1     :     0.005591
      f+2     :     0.012685
      f-2     :     0.012165
      f+3     :     0.006767
      f-3     :     0.006157
  3 C s       :     2.755547  s :     2.755547
      pz      :     0.997614  p :     2.867913
      px      :     0.904508
      py      :     0.965791
      dz2     :     0.129620  d :     0.502981
      dxz     :     0.116547
      dyz     :     0.045266
      dx2y2   :     0.108251
      dxy     :     0.103297
      f0      :     0.011582  f :     0.073642
      f+1     :     0.013352
      f-1     :     0.005819
      f+2     :     0.012820
      f-2     :     0.010760
      f+3     :     0.009637
      f-3     :     0.009672
  4 N s       :     2.892792  s :     2.892792
      pz      :     1.141216  p :     3.631927
      px      :     1.159791
      py      :     1.330919
      dz2     :     0.061499  d :     0.286897
      dxz     :     0.087843
      dyz     :     0.060524
      dx2y2   :     0.033127
      dxy     :     0.043904
      f0      :     0.003634  f :     0.022349
      f+1     :     0.005306
      f-1     :     0.003800
      f+2     :     0.002149
      f-2     :     0.001863
      f+3     :     0.002636
      f-3     :     0.002961
  5 C s       :     2.704035  s :     2.704035
      pz      :     0.871283  p :     2.818437
      px      :     1.012190
      py      :     0.934965
      dz2     :     0.169863  d :     0.619884
      dxz     :     0.156598
      dyz     :     0.110162
      dx2y2   :     0.095206
      dxy     :     0.088055
      f0      :     0.017471  f :     0.086345
      f+1     :     0.021992
      f-1     :     0.016229
      f+2     :     0.006561
      f-2     :     0.007923
      f+3     :     0.008557
      f-3     :     0.007612
  6 C s       :     2.810813  s :     2.810813
      pz      :     1.046195  p :     3.107606
      px      :     1.020027
      py      :     1.041384
      dz2     :     0.083289  d :     0.306611
      dxz     :     0.050164
      dyz     :     0.023195
      dx2y2   :     0.067096
      dxy     :     0.082867
      f0      :     0.003758  f :     0.031095
      f+1     :     0.005011
      f-1     :     0.003226
      f+2     :     0.004695
      f-2     :     0.005446
      f+3     :     0.003980
      f-3     :     0.004978
  7 C s       :     2.692399  s :     2.692399
      pz      :     0.835783  p :     2.751713
      px      :     1.000684
      py      :     0.915246
      dz2     :     0.205888  d :     0.702794
      dxz     :     0.169067
      dyz     :     0.147193
      dx2y2   :     0.090538
      dxy     :     0.090109
      f0      :     0.027661  f :     0.105174
      f+1     :     0.020060
      f-1     :     0.019150
      f+2     :     0.012349
      f-2     :     0.014138
      f+3     :     0.006359
      f-3     :     0.005457
  8 O s       :     3.325240  s :     3.325240
      pz      :     1.462368  p :     4.545088
      px      :     1.357520
      py      :     1.725200
      dz2     :     0.032146  d :     0.101283
      dxz     :     0.018218
      dyz     :     0.021148
      dx2y2   :     0.022065
      dxy     :     0.007706
      f0      :     0.001488  f :     0.007615
      f+1     :     0.001719
      f-1     :     0.001377
      f+2     :     0.000742
      f-2     :     0.000663
      f+3     :     0.001216
      f-3     :     0.000410
  9 H s       :     0.826999  s :     0.826999
      pz      :     0.013752  p :     0.064819
      px      :     0.035081
      py      :     0.015986
 10 H s       :     0.822055  s :     0.822055
      pz      :     0.032363  p :     0.065632
      px      :     0.018666
      py      :     0.014604
 11 H s       :     0.821247  s :     0.821247
      pz      :     0.027002  p :     0.065211
      px      :     0.019994
      py      :     0.018215
 12 H s       :     0.811629  s :     0.811629
      pz      :     0.024451  p :     0.061628
      px      :     0.019776
      py      :     0.017400
 13 H s       :     0.802717  s :     0.802717
      pz      :     0.031229  p :     0.062180
      px      :     0.016853
      py      :     0.014099
 14 H s       :     0.803720  s :     0.803720
      pz      :     0.038599  p :     0.067654
      px      :     0.012681
      py      :     0.016374
 15 H s       :     0.703169  s :     0.703169
      pz      :     0.031751  p :     0.112564
      px      :     0.041720
      py      :     0.039092
 16 H s       :     0.817176  s :     0.817176
      pz      :     0.015114  p :     0.064408
      px      :     0.027605
      py      :     0.021689
 17 H s       :     0.799818  s :     0.799818
      pz      :     0.037325  p :     0.065484
      px      :     0.013969
      py      :     0.014190
 18 H s       :     0.817835  s :     0.817835
      pz      :     0.013810  p :     0.064304
      px      :     0.014250
      py      :     0.036244
 19 H s       :     0.654503  s :     0.654503
      pz      :     0.031442  p :     0.161137
      px      :     0.084649
      py      :     0.045046


                      *****************************
                      * MAYER POPULATION ANALYSIS *
                      *****************************

  NA   - Mulliken gross atomic population
  ZA   - Total nuclear charge
  QA   - Mulliken gross atomic charge
  VA   - Mayer's total valence
  BVA  - Mayer's bonded valence
  FA   - Mayer's free valence

  ATOM       NA         ZA         QA         VA         BVA        FA
  0 C      6.3014     6.0000    -0.3014     3.9736     3.6744     0.2993
  1 C      6.2329     6.0000    -0.2329     4.0278     3.7040     0.3237
  2 C      5.9422     6.0000     0.0578     3.6562     3.2615     0.3947
  3 C      6.1192     6.0000    -0.1192     4.0644     3.6786     0.3858
  4 N      7.3299     7.0000    -0.3299     3.4416     3.0149     0.4268
  5 C      5.8758     6.0000     0.1242     3.7704     3.3805     0.3898
  6 C      6.3827     6.0000    -0.3827     4.0253     3.7242     0.3011
  7 C      5.9095     6.0000     0.0905     4.1820     3.8055     0.3765
  8 O      8.5221     8.0000    -0.5221     2.1790     1.7750     0.4040
  9 H      0.8963     1.0000     0.1037     0.9799     0.9294     0.0505
[...]
      dxz     :     0.026739
      dyz     :     0.017673
      dx2y2   :     0.028276
      dxy     :     0.026341
      f0      :     0.002765  f :     0.015164
      f+1     :     0.002411
      f-1     :     0.001566
      f+2     :     0.002309
      f-2     :     0.001876
      f+3     :     0.002275
      f-3     :     0.001961
  4 N s       :     3.416911  s :     3.416911
      pz      :     1.134499  p :     3.734752
      px      :     1.160046
      py      :     1.440206
      dz2     :     0.021441  d :     0.108122
      dxz     :     0.027630
      dyz     :     0.024763
      dx2y2   :     0.015250
      dxy     :     0.019039
      f0      :     0.001362  f :     0.008570
      f+1     :     0.001379
      f-1     :     0.001293
      f+2     :     0.000963
      f-2     :     0.001076
      f+3     :     0.001198
      f-3     :     0.001300
  5 C s       :     3.084088  s :     3.084088
      pz      :     0.687605  p :     2.635451
      px      :     0.917394
      py      :     1.030452
      dz2     :     0.044313  d :     0.159814
      dxz     :     0.030138
      dyz     :     0.027861
      dx2y2   :     0.028256
      dxy     :     0.029245
      f0      :     0.003046  f :     0.017680
      f+1     :     0.003873
      f-1     :     0.002866
      f+2     :     0.001729
      f-2     :     0.001644
      f+3     :     0.002558
      f-3     :     0.001964
  6 C s       :     3.297827  s :     3.297827
      pz      :     1.048452  p :     3.057102
      px      :     0.963358
      py      :     1.045292
      dz2     :     0.021708  d :     0.087590
      dxz     :     0.012284
      dyz     :     0.010689
      dx2y2   :     0.018822
      dxy     :     0.024087
      f0      :     0.001269  f :     0.007800
      f+1     :     0.001393
      f-1     :     0.000788
      f+2     :     0.000880
      f-2     :     0.000956
      f+3     :     0.001148
      f-3     :     0.001365
  7 C s       :     3.026457  s :     3.026457
      pz      :     0.753904  p :     2.693438
      px      :     0.995243
      py      :     0.944291
      dz2     :     0.051144  d :     0.201285
      dxz     :     0.049194
      dyz     :     0.040729
      dx2y2   :     0.028256
      dxy     :     0.031962
      f0      :     0.004762  f :     0.020287
      f+1     :     0.003353
      f-1     :     0.003457
      f+2     :     0.002507
      f-2     :     0.002676
      f+3     :     0.002080
      f-3     :     0.001451
  8 O s       :     3.779248  s :     3.779248
      pz      :     1.446315  p :     4.616869
      px      :     1.363295
      py      :     1.807260
      dz2     :     0.017947  d :     0.060718
      dxz     :     0.009611
      dyz     :     0.012111
      dx2y2   :     0.013483
      dxy     :     0.007565
      f0      :     0.000720  f :     0.004518
      f+1     :     0.000737
      f-1     :     0.000742
      f+2     :     0.000544
      f-2     :     0.000468
      f+3     :     0.000855
      f-3     :     0.000453
  9 H s       :     0.852184  s :     0.852184
      pz      :     0.005001  p :     0.023749
      px      :     0.012400
      py      :     0.006348
 10 H s       :     0.852606  s :     0.852606
      pz      :     0.011432  p :     0.023990
      px      :     0.006819
      py      :     0.005740
 11 H s       :     0.850244  s :     0.850244
      pz      :     0.009508  p :     0.023873
      px      :     0.007223
      py      :     0.007143
 12 H s       :     0.860374  s :     0.860374
      pz      :     0.008876  p :     0.023874
      px      :     0.008174
      py      :     0.006823
 13 H s       :     0.852004  s :     0.852004
      pz      :     0.011642  p :     0.024166
      px      :     0.006996
      py      :     0.005528
 14 H s       :     0.837790  s :     0.837790
      pz      :     0.014225  p :     0.024894
      px      :     0.004682
      py      :     0.005987
 15 H s       :     0.721977  s :     0.721977
      pz      :     0.011426  p :     0.039833
      px      :     0.014752
      py      :     0.013654
 16 H s       :     0.836449  s :     0.836449
      pz      :     0.005390  p :     0.023667
      px      :     0.010559
      py      :     0.007718
 17 H s       :     0.808886  s :     0.808886
      pz      :     0.013677  p :     0.024218
      px      :     0.005225
      py      :     0.005316
 18 H s       :     0.841372  s :     0.841372
      pz      :     0.005000  p :     0.023594
      px      :     0.005680
      py      :     0.012915
 19 H s       :     0.618185  s :     0.618185
      pz      :     0.012117  p :     0.048503
      px      :     0.019423
      py      :     0.016963


                     *******************************
                     * LOEWDIN POPULATION ANALYSIS *
                     *******************************

----------------------
LOEWDIN ATOMIC CHARGES
----------------------
   0 C :   -0.312134
   1 C :   -0.263766
   2 C :   -0.189771
   3 C :   -0.222708
   4 N :    0.191438
   5 C :   -0.243829
   6 C :   -0.284012
   7 C :   -0.268083
   8 O :    0.044503
   9 H :    0.117122
  10 H :    0.120332
  11 H :    0.122480
  12 H :    0.136634
  13 H :    0.144274
  14 H :    0.132214
  15 H :    0.189811
  16 H :    0.127619
  17 H :    0.142916
  18 H :    0.127166
  19 H :    0.187793

-------------------------------
LOEWDIN REDUCED ORBITAL CHARGES
-------------------------------
  0 C s       :     2.834692  s :     2.834692
      pz      :     1.071955  p :     3.157291
      px      :     1.060505
      py      :     1.024830
      dz2     :     0.047098  d :     0.290803
      dxz     :     0.035187
      dyz     :     0.074195
      dx2y2   :     0.058891
      dxy     :     0.075431
      f0      :     0.002762  f :     0.029347
      f+1     :     0.003860
      f-1     :     0.004284
      f+2     :     0.004201
      f-2     :     0.003408
      f+3     :     0.005804
      f-3     :     0.005029
  1 C s       :     2.767705  s :     2.767705
      pz      :     1.018656  p :     3.024105
      px      :     0.993963
      py      :     1.011487
      dz2     :     0.052740  d :     0.427448
      dxz     :     0.088947
      dyz     :     0.074015
      dx2y2   :     0.103089
      dxy     :     0.108658
      f0      :     0.004867  f :     0.044507
      f+1     :     0.005059
      f-1     :     0.004549
      f+2     :     0.005744
      f-2     :     0.005873
      f+3     :     0.010959
      f-3     :     0.007458
  2 C s       :     2.705495  s :     2.705495
      pz      :     0.991349  p :     2.874487
      px      :     0.961846
      py      :     0.921292
      dz2     :     0.115287  d :     0.542837
      dxz     :     0.160559
      dyz     :     0.098078
      dx2y2   :     0.086200
      dxy     :     0.082713
      f0      :     0.012238  f :     0.066952
      f+1     :     0.010861
      f-1     :     0.005589
      f+2     :     0.012981
      f-2     :     0.012328
      f+3     :     0.006804
      f-3     :     0.006149
  3 C s       :     2.760432  s :     2.760432
      pz      :     0.997633  p :     2.898476
      px      :     0.907717
      py      :     0.993125
      dz2     :     0.128296  d :     0.491338
      dxz     :     0.114552
      dyz     :     0.045610
      dx2y2   :     0.104105
      dxy     :     0.098775
      f0      :     0.011574  f :     0.072462
      f+1     :     0.013203
      f-1     :     0.005888
      f+2     :     0.012910
      f-2     :     0.010564
      f+3     :     0.008830
      f-3     :     0.009493
  4 N s       :     2.900365  s :     2.900365
      pz      :     1.141084  p :     3.595995
      px      :     1.157261
      py      :     1.297650
      dz2     :     0.061309  d :     0.289589
      dxz     :     0.087967
      dyz     :     0.061951
      dx2y2   :     0.033427
      dxy     :     0.044935
      f0      :     0.003628  f :     0.022612
      f+1     :     0.005381
      f-1     :     0.003895
      f+2     :     0.002139
      f-2     :     0.001856
      f+3     :     0.002700
      f-3     :     0.003012
  5 C s       :     2.708372  s :     2.708372
      pz      :     0.872410  p :     2.840326
      px      :     1.010759
      py      :     0.957156
      dz2     :     0.168110  d :     0.609873
      dxz     :     0.154728
      dyz     :     0.106547
      dx2y2   :     0.093270
      dxy     :     0.087217
      f0      :     0.016990  f :     0.085258
      f+1     :     0.022108
      f-1     :     0.015368
      f+2     :     0.006434
      f-2     :     0.007920
      f+3     :     0.008630
      f-3     :     0.007806
  6 C s       :     2.815972  s :     2.815972
      pz      :     1.058196  p :     3.143541
      px      :     1.030056
      py      :     1.055288
      dz2     :     0.079366  d :     0.293504
      dxz     :     0.046509
      dyz     :     0.023084
      dx2y2   :     0.063916
      dxy     :     0.080628
      f0      :     0.003618  f :     0.030995
      f+1     :     0.005026
      f-1     :     0.003218
      f+2     :     0.004680
      f-2     :     0.005591
      f+3     :     0.003942
      f-3     :     0.004920
  7 C s       :     2.699010  s :     2.699010
      pz      :     0.837497  p :     2.763062
      px      :     1.001357
      py      :     0.924208
      dz2     :     0.206958  d :     0.702778
      dxz     :     0.167437
      dyz     :     0.149004
      dx2y2   :     0.089710
      dxy     :     0.089668
      f0      :     0.026934  f :     0.103234
      f+1     :     0.019595
      f-1     :     0.018338
      f+2     :     0.012177
      f-2     :     0.014136
      f+3     :     0.006491
      f-3     :     0.005563
  8 O s       :     3.328385  s :     3.328385
      pz      :     1.456575  p :     4.518850
      px      :     1.357120
      py      :     1.705154
      dz2     :     0.031259  d :     0.100549
      dxz     :     0.018663
      dyz     :     0.021345
      dx2y2   :     0.021441
      dxy     :     0.007841
      f0      :     0.001515  f :     0.007713
      f+1     :     0.001736
      f-1     :     0.001414
      f+2     :     0.000749
      f-2     :     0.000672
      f+3     :     0.001218
      f-3     :     0.000410
  9 H s       :     0.817002  s :     0.817002
      pz      :     0.014372  p :     0.065876
      px      :     0.034974
      py      :     0.016531
 10 H s       :     0.813137  s :     0.813137
      pz      :     0.032332  p :     0.066531
      px      :     0.019111
      py      :     0.015088
 11 H s       :     0.811412  s :     0.811412
      pz      :     0.027138  p :     0.066108
      px      :     0.020374
      py      :     0.018596
 12 H s       :     0.800465  s :     0.800465
      pz      :     0.024822  p :     0.062901
      px      :     0.020197
      py      :     0.017882
 13 H s       :     0.792357  s :     0.792357
      pz      :     0.031276  p :     0.063369
      px      :     0.017413
      py      :     0.014680
 14 H s       :     0.799497  s :     0.799497
      pz      :     0.037648  p :     0.068288
      px      :     0.013259
      py      :     0.017382
 15 H s       :     0.699354  s :     0.699354
      pz      :     0.032009  p :     0.110835
      px      :     0.041391
      py      :     0.037436
 16 H s       :     0.807008  s :     0.807008
      pz      :     0.015695  p :     0.065373
      px      :     0.027719
      py      :     0.021959
 17 H s       :     0.790782  s :     0.790782
      pz      :     0.036930  p :     0.066302
      px      :     0.014592
      py      :     0.014780
 18 H s       :     0.807537  s :     0.807537
      pz      :     0.014433  p :     0.065297
      px      :     0.014840
      py      :     0.036024
 19 H s       :     0.650441  s :     0.650441
      pz      :     0.031956  p :     0.161766
      px      :     0.084172
      py      :     0.045637


                      *****************************
                      * MAYER POPULATION ANALYSIS *
                      *****************************

  NA   - Mulliken gross atomic population
  ZA   - Total nuclear charge
  QA   - Mulliken gross atomic charge
  VA   - Mayer's total valence
  BVA  - Mayer's bonded valence
  FA   - Mayer's free valence

  ATOM       NA         ZA         QA         VA         BVA        FA
  0 C      6.3557     6.0000    -0.3557     3.9478     3.6509     0.2969
  1 C      6.3145     6.0000    -0.3145     4.0389     3.7188     0.3201
  2 C      5.9304     6.0000     0.0696     3.6925     3.3079     0.3846
  3 C      6.1445     6.0000    -0.1445     4.0408     3.6645     0.3762
  4 N      7.2684     7.0000    -0.2684     3.5635     3.1461     0.4174
  5 C      5.8970     6.0000     0.1030     3.7938     3.4136     0.3802
  6 C      6.4503     6.0000    -0.4503     4.0016     3.7030     0.2986
  7 C      5.9415     6.0000     0.0585     4.2818     3.9177     0.3640
  8 O      8.4614     8.0000    -0.4614     2.2833     1.8880     0.3953
  9 H      0.8759     1.0000     0.1241     0.9741     0.9245     0.0496
 10 H      0.8766     1.0000     0.1234     0.9937     0.9438     0.0499
 11 H      0.8741     1.0000     0.1259     0.9851     0.9354     0.0498
 12 H      0.8842     1.0000     0.1158     0.9633     0.9116     0.0517
 13 H      0.8762     1.0000     0.1238     0.9777     0.9273     0.0504
 14 H      0.8627     1.0000     0.1373     0.9854     0.9378     0.0476
 15 H      0.7618     1.0000     0.2382     0.9503     0.9023     0.0480
 16 H      0.8601     1.0000     0.1399     0.9609     0.9111     0.0498
 17 H      0.8331     1.0000     0.1669     0.9738     0.9262     0.0475
 18 H      0.8650     1.0000     0.1350     0.9639     0.9139     0.0500
 19 H      0.6667     1.0000     0.3333     0.9029     0.8526     0.0503

  Mayer bond orders larger than 0.1
B(  0-C ,  1-C ) :   0.9175 B(  0-C ,  9-H ) :   0.9361 B(  0-C , 10-H ) :   0.9342 
B(  0-C , 11-H ) :   0.9376 B(  1-C ,  2-C ) :   0.8459 B(  1-C , 12-H ) :   0.9457 
B(  1-C , 13-H ) :   0.9483 B(  2-C ,  3-C ) :   1.4174 B(  2-C ,  7-C ) :   1.2282 
B(  3-C ,  4-N ) :   1.1705 B(  3-C , 14-H ) :   0.9105 B(  4-N ,  5-C ) :   1.0887 
B(  4-N , 15-H ) :   0.8774 B(  5-C ,  6-C ) :   0.8429 B(  5-C ,  7-C ) :   1.5225 
B(  6-C , 16-H ) :   0.9375 B(  6-C , 17-H ) :   0.9460 B(  6-C , 18-H ) :   0.9390 
B(  7-C ,  8-O ) :   1.0586 B(  8-O , 19-H ) :   0.8330 


-------
TIMINGS
-------

Total time                :  865.131 sec
Integral trafo            :    6.921 sec (  0.8%)
FC preparation            :    3.950 sec (  0.5%)
I/O of integrals          :    0.055 sec (  0.0%)
K(i,j) Operators          :    9.816 sec (  1.1%)
T(i,j) pair energies      :    0.855 sec (  0.1%)
V-calculation             :    0.018 sec (  0.0%)
V**(-1/2)                 :    0.127 sec (  0.0%)
Gamma(ia|P)               :    9.568 sec (  1.1%)
Gamma-Trafo               :    1.529 sec (  0.2%)
D(virtual)                :    3.637 sec (  0.4%)
D(internal)               :    3.292 sec (  0.4%)
W(virtual)                :    0.000 sec (  0.0%)
W(internal)               :    0.000 sec (  0.0%)
L(virtual)                :   11.190 sec (  1.3%)
L(internal)               :    0.195 sec (  0.0%)
G(D)                      :  103.485 sec ( 12.0%)
G(Z)                      :    0.000 sec (  0.0%)
Z-Vector Solution         :  709.734 sec ( 82.0%)
3-Index Derivative        :    0.000 sec (  0.0%)
2-Index Derivative        :    0.000 sec (  0.0%)
Separable Gradient (RIJ)  :    0.000 sec (  0.0%)
Separable Gradient (X)    :    0.000 sec (  0.0%)


---------------------------------------
MP2 TOTAL ENERGY:     -402.497175308 Eh
---------------------------------------

-------------------------   --------------------
FINAL SINGLE POINT ENERGY      -402.497175308143
-------------------------   --------------------


                            ***************************************
                            *     ORCA property calculations      *
                            ***************************************

                                    ---------------------
                                    Active property flags
                                    ---------------------
   (+) Dipole Moment


------------------------------------------------------------------------------
                       ORCA ELECTRIC PROPERTIES CALCULATION
------------------------------------------------------------------------------

Dipole Moment Calculation                       ... on
Quadrupole Moment Calculation                   ... off
Polarizability Calculation                      ... off
GBWName                                         ... dsgdb9nsd_032417.gbw
Electron density file                           ... dsgdb9nsd_032417.scfp.tmp

-------------
DIPOLE MOMENT
-------------
                                X             Y             Z
Electronic contribution:     -2.45716      -3.22655       0.02373
Nuclear contribution   :      2.44912       2.84687       0.59031
                        -----------------------------------------
Total Dipole Moment    :     -0.00805      -0.37968       0.61405
                        -----------------------------------------
Magnitude (a.u.)       :      0.72199
Magnitude (Debye)      :      1.83516


                         *** MP2 UNRELAXED DENSITY ***

------------------------------------------------------------------------------
                       ORCA ELECTRIC PROPERTIES CALCULATION
------------------------------------------------------------------------------

Dipole Moment Calculation                       ... on
Quadrupole Moment Calculation                   ... off
Polarizability Calculation                      ... off
GBWName                                         ... dsgdb9nsd_032417.gbw
Electron density file                           ... dsgdb9nsd_032417.pmp2ur

-------------
DIPOLE MOMENT
-------------
                                X             Y             Z
Electronic contribution:     -2.47169      -3.22319       0.00800
Nuclear contribution   :      2.44912       2.84687       0.59031
                        -----------------------------------------
Total Dipole Moment    :     -0.02257      -0.37633       0.59831
                        -----------------------------------------
Magnitude (a.u.)       :      0.70718
Magnitude (Debye)      :      1.79751


                           *** MP2 RELAXED DENSITY ***

------------------------------------------------------------------------------
                       ORCA ELECTRIC PROPERTIES CALCULATION
------------------------------------------------------------------------------

Dipole Moment Calculation                       ... on
Quadrupole Moment Calculation                   ... off
Polarizability Calculation                      ... off
GBWName                                         ... dsgdb9nsd_032417.gbw
Electron density file                           ... dsgdb9nsd_032417.pmp2re

-------------
DIPOLE MOMENT
-------------
                                X             Y             Z
Electronic contribution:     -2.50870      -3.22546      -0.03853
Nuclear contribution   :      2.44912       2.84687       0.59031
                        -----------------------------------------
Total Dipole Moment    :     -0.05959      -0.37859       0.55179
                        -----------------------------------------
Magnitude (a.u.)       :      0.67182
Magnitude (Debye)      :      1.70764


Timings for individual modules:

Sum of individual times         ...     1032.590 sec (=  17.210 min)
GTO integral calculation        ...        0.549 sec (=   0.009 min)   0.1 %
SCF iterations                  ...      166.749 sec (=   2.779 min)  16.1 %
MP2 module                      ...      865.292 sec (=  14.422 min)  83.8 %
                             ****ORCA TERMINATED NORMALLY****
TOTAL RUN TIME: 0 days 0 hours 17 minutes 13 seconds 106 msec
