
                                 *****************
                                 * O   R   C   A *
                                 *****************

           --- An Ab Initio, DFT and Semiempirical electronic structure package ---

                  #######################################################
                  #                        -***-                        #
                  #  Department of molecular theory and spectroscopy    #
                  #              Directorship: Frank Neese              #
                  # Max Planck Institute for Chemical Energy Conversion #
                  #                  D-45470 Muelheim/Ruhr              #
                  #                       Germany                       #
                  #                                                     #
                  #                  All rights reserved                #
                  #                        -***-                        #
                  #######################################################


                         Program Version 3.0.3 - RELEASE   -


 With contributions from (in alphabetic order):
   Ute Becker             : Parallelization
   Dmytro Bykov           : SCF Hessian
   Dmitry Ganyushin       : Spin-Orbit,Spin-Spin,Magnetic field MRCI
   Andreas Hansen         : Spin unrestricted coupled pair/coupled cluster methods
   Dimitrios Liakos       : Extrapolation schemes; parallel MDCI
   Robert Izsak           : Overlap fitted RIJCOSX, COSX-SCS-MP3
   Christian Kollmar      : KDIIS, OOCD, Brueckner-CCSD(T), CCSD density
   Simone Kossmann        : Meta GGA functionals, TD-DFT gradient, OOMP2, MP2 Hessian
   Taras Petrenko         : DFT Hessian,TD-DFT gradient, ASA and ECA modules, normal mode analysis, Resonance Raman, ABS, FL, XAS/XES, NRVS
   Christoph Reimann      : Effective Core Potentials
   Michael Roemelt        : Restricted open shell CIS
   Christoph Riplinger    : Improved optimizer, TS searches, QM/MM, DLPNO-CCSD
   Barbara Sandhoefer     : DKH picture change effects
   Igor Schapiro          : Molecular dynamics
   Kantharuban Sivalingam : CASSCF convergence, NEVPT2
   Boris Wezisla          : Elementary symmetry handling
   Frank Wennmohs         : Technical directorship


 We gratefully acknowledge several colleagues who have allowed us to
 interface, adapt or use parts of their codes:
   Stefan Grimme, W. Hujo, H. Kruse, T. Risthaus : VdW corrections, initial TS optimization,
                                                   DFT functionals, gCP
   Ed Valeev                                     : LibInt (2-el integral package), F12 methods
   Garnet Chan, S. Sharma, R. Olivares           : DMRG
   Ulf Ekstrom                                   : XCFun DFT Library
   Mihaly Kallay                                 : mrcc  (arbitrary order and MRCC methods)
   Andreas Klamt, Michael Diedenhofen            : otool_cosmo (COSMO solvation model)
   Frank Weinhold                                : gennbo (NPA and NBO analysis)
   Christopher J. Cramer and Donald G. Truhlar   : smd solvation model


 Your calculation uses the libint2 library for the computation of 2-el integrals
 For citations please refer to: http://libint.valeyev.net

 This ORCA versions uses:
   CBLAS   interface :  Fast vector & matrix operations
   LAPACKE interface :  Fast linear algebra routines
   SCALAPACK package :  Parallel linear algebra routines


Your calculation utilizes the basis: Ahlrichs-TZV
Cite in your paper:
H - Kr: A. Schaefer, H. Horn and R. Ahlrichs, J. Chem. Phys. 97, 2571 (1992).

The def2-TZV basis will be loaded
Cite in your paper:
 	F. Weigend, R. Ahlrichs, Phys. Chem. Chem. Phys. 2005, 7, 3297.

================================================================================
                                        WARNINGS
                       Please study these warnings very carefully!
================================================================================
Now building the actual basis set


INFO   : the flag for use of LIBINT has been found!

================================================================================
                                       INPUT FILE
================================================================================
NAME = dsgdb9nsd_012104.inp
|  1> ! RI-MP2 RIJK def2-TZVP def2-TZVP/C def2-TZVP/JK TIGHTSCF
|  2> % maxcore 2000
|  3> % mp2 density relaxed end
|  4> *xyz 0 1
|  5>  C       -0.0219614440     1.5028250627    -0.5805283235 
|  6>  C       -0.0368110307     0.0387344580    -0.1977413174 
|  7>  C       -1.3800635413    -0.6747767567    -0.2210242132 
|  8>  C       -2.3710719329    -0.1217874342     0.7849926287 
|  9>  C       -3.3519231050     0.9613877929     0.4048795298 
| 10>  C       -3.8377041282    -0.4437990840     0.6601591058 
| 11>  C        1.1936971287    -0.7547379306    -0.3382509745 
| 12>  O        0.7741151938    -0.2874601583     0.9461116084 
| 13>  H        0.9907255957     1.9067266768    -0.5072593130 
| 14>  H       -0.3787903275     1.6391886666    -1.6074308142 
| 15>  H       -0.6727557735     2.0827287921     0.0798490095 
| 16>  H       -1.8063135084    -0.6128751705    -1.2315599929 
| 17>  H       -1.2061900535    -1.7371690683    -0.0135193964 
| 18>  H       -1.9790571775    -0.0761867649     1.7973373292 
| 19>  H       -3.5858842022     1.7295957903     1.1338299857 
| 20>  H       -3.3462562025     1.3137092065    -0.6217102550 
| 21>  H       -4.1562901346    -1.0318812732    -0.1948577857 
| 22>  H       -4.4023586916    -0.6387203015     1.5651404248 
| 23>  H        1.1315656435    -1.8325097017    -0.4876482020 
| 24>  H        2.0955789119    -0.2875808221    -0.7333363141 
| 25> *
| 26> 
| 27>                          ****END OF INPUT****
================================================================================

                       ****************************
                       * Single Point Calculation *
                       ****************************

---------------------------------
CARTESIAN COORDINATES (ANGSTROEM)
---------------------------------
  C     -0.021961    1.502825   -0.580528
  C     -0.036811    0.038734   -0.197741
  C     -1.380064   -0.674777   -0.221024
  C     -2.371072   -0.121787    0.784993
  C     -3.351923    0.961388    0.404880
  C     -3.837704   -0.443799    0.660159
  C      1.193697   -0.754738   -0.338251
  O      0.774115   -0.287460    0.946112
  H      0.990726    1.906727   -0.507259
  H     -0.378790    1.639189   -1.607431
  H     -0.672756    2.082729    0.079849
  H     -1.806314   -0.612875   -1.231560
  H     -1.206190   -1.737169   -0.013519
  H     -1.979057   -0.076187    1.797337
  H     -3.585884    1.729596    1.133830
  H     -3.346256    1.313709   -0.621710
  H     -4.156290   -1.031881   -0.194858
  H     -4.402359   -0.638720    1.565140
  H      1.131566   -1.832510   -0.487648
  H      2.095579   -0.287581   -0.733336

----------------------------
CARTESIAN COORDINATES (A.U.)
----------------------------
  NO LB      ZA    FRAG    MASS        X           Y           Z
   0 C     6.0000    0    12.011         -0.041501114665448          2.839927795696033         -1.097039544399441
   1 C     6.0000    0    12.011         -0.069562766730368          0.073197517565875         -0.373676935246797
   2 C     6.0000    0    12.011         -2.607942140466521         -1.275143271698612         -0.417675231913422
   3 C     6.0000    0    12.011         -4.480676597008307         -0.230144897190955          1.483421085389931
   4 C     6.0000    0    12.011         -6.334216690412967          1.816759637076002          0.765111428552808
   5 C     6.0000    0    12.011         -7.252209785317014         -0.838658727245113          1.247519914776345
   6 C     6.0000    0    12.011          2.255760660091150         -1.426247991716464         -0.639201706336981
   7 O     8.0000    0    15.999          1.462865712389374         -0.543220973600650          1.787891831999749
   8 H     1.0000    0     1.008          1.872200049738990          3.603191231393780         -0.958581180451040
   9 H     1.0000    0     1.008         -0.715809981153340          3.097617661701550         -3.037604018064056
  10 H     1.0000    0     1.008         -1.271324166929356          3.935787028301612          0.150892760019876
  11 H     1.0000    0     1.008         -3.413437842878464         -1.158166226525293         -2.327311104075001
  12 H     1.0000    0     1.008         -2.279368866574823         -3.282773787406142         -0.025547956691921
  13 H     1.0000    0     1.008         -3.739876068846180         -0.143972120690444          3.396475322461464
  14 H     1.0000    0     1.008         -6.776339090112698          3.268462366050091          2.142628155400849
  15 H     1.0000    0     1.008         -6.323507796660334          2.482550619896000         -1.174862116600345
  16 H     1.0000    0     1.008         -7.854250087512696         -1.949973009069975         -0.368227850035317
  17 H     1.0000    0     1.008         -8.319252270411887         -1.207006446010611          2.957686764001170
  18 H     1.0000    0     1.008          2.138349168769369         -3.462941473966727         -0.921521551479110
  19 H     1.0000    0     1.008          3.960070235511691         -0.543448995136928         -1.385804797708254

--------------------------------
INTERNAL COORDINATES (ANGSTROEM)
--------------------------------
 C      0   0   0   0.000000     0.000     0.000
 C      1   0   0   1.513376     0.000     0.000
 C      2   1   0   1.521173   117.295     0.000
 C      3   2   1   1.516563   113.318   296.183
 C      4   3   2   1.509908   121.270    92.594
 C      4   3   2   1.506746   120.210   163.742
 C      2   1   3   1.470881   119.309   156.146
 O      7   2   1   1.429680    59.492   102.485
 H      1   2   3   1.092721   110.471   178.905
 H      1   2   3   1.095651   110.749   299.247
 H      1   2   3   1.093581   110.759    58.833
 H      3   2   1   1.098501   109.287    58.773
 H      3   2   1   1.096343   108.155   174.773
 H      4   3   2   1.086553   113.428   307.240
 H      5   4   3   1.084551   118.624   217.349
 H      5   4   3   1.085380   117.878     1.752
 H      6   4   3   1.085537   117.820   356.763
 H      6   4   3   1.084352   118.433   140.783
 H      7   2   1   1.089849   119.926   206.148
 H      7   2   1   1.089825   119.716   358.818

---------------------------
INTERNAL COORDINATES (A.U.)
---------------------------
 C      0   0   0   0.000000     0.000     0.000
 C      1   0   0   2.859867     0.000     0.000
 C      2   1   0   2.874601   117.295     0.000
 C      3   2   1   2.865890   113.318   296.183
 C      4   3   2   2.853313   121.270    92.594
 C      4   3   2   2.847338   120.210   163.742
 C      2   1   3   2.779563   119.309   156.146
 O      7   2   1   2.701704    59.492   102.485
 H      1   2   3   2.064944   110.471   178.905
 H      1   2   3   2.070480   110.749   299.247
 H      1   2   3   2.066569   110.759    58.833
 H      3   2   1   2.075865   109.287    58.773
 H      3   2   1   2.071788   108.155   174.773
 H      4   3   2   2.053287   113.428   307.240
 H      5   4   3   2.049504   118.624   217.349
 H      5   4   3   2.051070   117.878     1.752
 H      6   4   3   2.051369   117.820   356.763
 H      6   4   3   2.049129   118.433   140.783
 H      7   2   1   2.059517   119.926   206.148
 H      7   2   1   2.059471   119.716   358.818

---------------------
BASIS SET INFORMATION
---------------------
There are 3 groups of distinct atoms

 Group   1 Type C   : 11s6p2d1f contracted to 5s3p2d1f pattern {62111/411/11/1}
 Group   2 Type O   : 11s6p2d1f contracted to 5s3p2d1f pattern {62111/411/11/1}
 Group   3 Type H   : 5s1p contracted to 3s1p pattern {311/1}

Atom   0C    basis set group =>   1
Atom   1C    basis set group =>   1
Atom   2C    basis set group =>   1
Atom   3C    basis set group =>   1
Atom   4C    basis set group =>   1
Atom   5C    basis set group =>   1
Atom   6C    basis set group =>   1
Atom   7O    basis set group =>   2
Atom   8H    basis set group =>   3
Atom   9H    basis set group =>   3
Atom  10H    basis set group =>   3
Atom  11H    basis set group =>   3
Atom  12H    basis set group =>   3
Atom  13H    basis set group =>   3
Atom  14H    basis set group =>   3
Atom  15H    basis set group =>   3
Atom  16H    basis set group =>   3
Atom  17H    basis set group =>   3
Atom  18H    basis set group =>   3
Atom  19H    basis set group =>   3
-------------------------------
AUXILIARY BASIS SET INFORMATION
-------------------------------
There are 3 groups of distinct atoms

 Group   1 Type C   : 14s10p6d2f1g contracted to 10s8p5d1f1g pattern {5111111111/31111111/21111/2/1}
 Group   2 Type O   : 14s10p6d2f1g contracted to 10s8p4d2f1g pattern {5111111111/31111111/3111/11/1}
 Group   3 Type H   : 4s2p2d contracted to 2s2p2d pattern {31/11/11}

Atom   0C    basis set group =>   1
Atom   1C    basis set group =>   1
Atom   2C    basis set group =>   1
Atom   3C    basis set group =>   1
Atom   4C    basis set group =>   1
Atom   5C    basis set group =>   1
Atom   6C    basis set group =>   1
Atom   7O    basis set group =>   2
Atom   8H    basis set group =>   3
Atom   9H    basis set group =>   3
Atom  10H    basis set group =>   3
Atom  11H    basis set group =>   3
Atom  12H    basis set group =>   3
Atom  13H    basis set group =>   3
Atom  14H    basis set group =>   3
Atom  15H    basis set group =>   3
Atom  16H    basis set group =>   3
Atom  17H    basis set group =>   3
Atom  18H    basis set group =>   3
Atom  19H    basis set group =>   3
------------------------------------------------------------------------------
                           ORCA GTO INTEGRAL CALCULATION
                           -- RI-GTO INTEGRALS CHOSEN --
------------------------------------------------------------------------------

                         BASIS SET STATISTICS AND STARTUP INFO

Gaussian basis set:
 # of primitive gaussian shells          ...  232
 # of primitive gaussian functions       ...  464
 # of contracted shells                  ...  136
 # of contracted basis functions         ...  320
 Highest angular momentum                ...    3
 Maximum contraction depth               ...    6
Auxiliary gaussian basis set:
 # of primitive gaussian shells          ...  360
 # of primitive gaussian functions       ... 1016
 # of contracted shells                  ...  272
 # of contracted aux-basis functions     ...  818
 Highest angular momentum                ...    4
 Maximum contraction depth               ...    5
Ratio of auxiliary to basis functions    ...  2.56
Integral package used                  ... LIBINT
 One Electron integrals                  ... done
 Ordering auxiliary basis shells         ... done
 Integral threshhold             Thresh  ...  2.500e-11
 Primitive cut-off               TCut    ...  2.500e-12
 Pre-screening matrix                    ... done
 Shell pair data                         ... 
 Ordering of the shell pairs             ... done (   0.002 sec) 8523 of 9316 pairs
 Determination of significant pairs      ... done (   0.000 sec)
 Creation of shell pair data             ... done (   0.002 sec)
 Storage of shell pair data              ... done (   0.002 sec)
 Shell pair data done in (   0.005 sec)
 Computing two index integrals           ... done
 Cholesky decomposition of the V-matrix  ... done


Timings:
 Total evaluation time                   ...   0.354 sec (  0.006 min)
 One electron matrix time                ...   0.087 sec (  0.001 min) = 24.5%
 Schwartz matrix evaluation time         ...   0.184 sec (  0.003 min) = 52.1%
 Two index repulsion integral time       ...   0.020 sec (  0.000 min) =  5.8%
 Cholesky decomposition of V             ...   0.030 sec (  0.000 min) =  8.3%
 Three index repulsion integral time     ...   0.000 sec (  0.000 min) =  0.0%

-------------------------------------------------------------------------------
                                 ORCA SCF
-------------------------------------------------------------------------------

------------
SCF SETTINGS
------------
Hamiltonian:
 Ab initio Hamiltonian  Method          .... Hartree-Fock(GTOs)
 RI-approximation to the Coulomb term is turned on
   Number of auxiliary basis functions  .... 818
   RI-JK (J+K treated both via RI)      .... on


General Settings:
 Integral files         IntName         .... dsgdb9nsd_012104
 Hartree-Fock type      HFTyp           .... RHF
 Total Charge           Charge          ....    0
 Multiplicity           Mult            ....    1
 Number of Electrons    NEL             ....   62
 Basis Dimension        Dim             ....  320
 Nuclear Repulsion      ENuc            ....    382.2883414477 Eh

Convergence Acceleration:
 DIIS                   CNVDIIS         .... on
   Start iteration      DIISMaxIt       ....    12
   Startup error        DIISStart       ....  0.200000
   # of expansion vecs  DIISMaxEq       ....     5
   Bias factor          DIISBfac        ....   1.050
   Max. coefficient     DIISMaxC        ....  10.000
 Newton-Raphson         CNVNR           .... off
 SOSCF                  CNVSOSCF        .... on
   Start iteration      SOSCFMaxIt      ....   150
   Startup grad/error   SOSCFStart      ....  0.003300
 Level Shifting         CNVShift        .... on
   Level shift para.    LevelShift      ....    0.2500
   Turn off err/grad.   ShiftErr        ....    0.0010
 Zerner damping         CNVZerner       .... off
 Static damping         CNVDamp         .... on
   Fraction old density DampFac         ....    0.7000
   Max. Damping (<1)    DampMax         ....    0.9800
   Min. Damping (>=0)   DampMin         ....    0.0000
   Turn off err/grad.   DampErr         ....    0.1000
 Fernandez-Rico         CNVRico         .... off

SCF Procedure:
 Maximum # iterations   MaxIter         ....   125
 SCF integral mode      SCFMode         .... Direct
   Integral package                     .... LIBINT
 Reset frequeny         DirectResetFreq ....    20
 Integral Threshold     Thresh          ....  2.500e-11 Eh
 Primitive CutOff       TCut            ....  2.500e-12 Eh

Convergence Tolerance:
 Convergence Check Mode ConvCheckMode   .... Total+1el-Energy
 Energy Change          TolE            ....  1.000e-08 Eh
 1-El. energy change                    ....  1.000e-05 Eh
 Orbital Gradient       TolG            ....  1.000e-05
 Orbital Rotation angle TolX            ....  1.000e-05
 DIIS Error             TolErr          ....  5.000e-07


Diagonalization of the overlap matrix:
Smallest eigenvalue                        ... 8.998e-05
Time for diagonalization                   ...    0.028 sec
Threshold for overlap eigenvalues          ... 1.000e-08
Number of eigenvalues below threshold      ... 0
Time for construction of square roots      ...    0.014 sec
Total time needed                          ...    0.042 sec

-------------------
DFT GRID GENERATION
-------------------

General Integration Accuracy     IntAcc      ...  4.340
Radial Grid Type                 RadialGrid  ... Gauss-Chebyshev
Angular Grid (max. acc.)         AngularGrid ... Lebedev-110
Angular grid pruning method      GridPruning ... 3 (G Style)
Weight generation scheme         WeightScheme... Becke
Basis function cutoff            BFCut       ...    1.0000e-11
Integration weight cutoff        WCut        ...    1.0000e-14
Grids for H and He will be reduced by one unit

# of grid points (after initial pruning)     ...  22836 (   0.0 sec)
# of grid points (after weights+screening)   ...  20909 (   0.1 sec)
nearest neighbour list constructed           ...    0.0 sec
Grid point re-assignment to atoms done       ...    0.0 sec
Grid point division into batches done        ...    0.0 sec
Reduced shell lists constructed in    1.2 sec

Total number of grid points                  ...    20909
Total number of batches                      ...      335
Average number of points per batch           ...       62
Average number of grid points per atom       ...     1045
Average number of shells per batch           ...    92.08 (67.71%)
Average number of basis functions per batch  ...   221.12 (69.10%)
Average number of large shells per batch     ...    71.37 (77.51%)
Average number of large basis fcns per batch ...   169.35 (76.59%)
Average number of aux-shells per batch       ...    92.08 (33.85%)
Average number of aux functions per batch    ...   221.12 (  inf%)
Maximum spatial batch extension              ...  22.38, 19.16, 25.60 au
Average spatial batch extension              ...   3.64,  3.77,  3.61 au

Time for grid setup =    1.321 sec

------------------------------
INITIAL GUESS: MODEL POTENTIAL
------------------------------
Loading Hartree-Fock densities                     ... done
Calculating cut-offs                               ... done
Setting up the integral package                    ... done
Initializing the effective Hamiltonian             ... done
Starting the Coulomb interaction                   ... done (   0.6 sec)
Reading the grid                                   ... done
Mapping shells                                     ... done
Starting the XC term evaluation                    ... done (   0.6 sec)
Transforming the Hamiltonian                       ... done (   0.0 sec)
Diagonalizing the Hamiltonian                      ... done (   0.0 sec)
Back transforming the eigenvectors                 ... done (   0.0 sec)
Now organizing SCF variables                       ... done
                      ------------------
                      INITIAL GUESS DONE (   2.8 sec)
                      ------------------
--------------
SCF ITERATIONS
--------------
ITER       Energy         Delta-E        Max-DP      RMS-DP      [F,P]     Damp
  0   -346.5935908314   0.000000000000 0.03323173  0.00080259  0.2969332 0.7000
  1   -346.4723054708   0.121285360573 0.03333418  0.00083144  0.2483626 0.7000
                               ***Turning on DIIS***
  2   -346.5169228124  -0.044617341530 0.02352055  0.00060430  0.1811666 0.7000
  3   -347.6802251204  -1.163302308009 0.01264641  0.00033305  0.1269368 0.7000
  4   -346.9301725055   0.750052614900 0.02959689  0.00080549  0.0841347 0.0000
  5   -346.9414130177  -0.011240512199 0.00768921  0.00019176  0.0205775 0.0000
  6   -346.8615131310   0.079899886652 0.00480624  0.00010173  0.0110629 0.0000
  7   -346.9019577408  -0.040444609745 0.00254296  0.00005635  0.0071455 0.0000
  8   -346.8876319464   0.014325794374 0.00195112  0.00004812  0.0040048 0.0000
                      *** Initiating the SOSCF procedure ***
                           *** Shutting down DIIS ***
                      *** Re-Reading the Fockian *** 
                      *** Removing any level shift *** 
ITER      Energy       Delta-E        Grad      Rot      Max-DP    RMS-DP
  9   -346.97296862  -0.0853366778  0.000098  0.000098  0.000444  0.000012
 10   -346.97807865  -0.0051100285  0.000029  0.000039  0.000083  0.000003
 11   -346.97807876  -0.0000001034  0.000017  0.000010  0.000047  0.000001
 12   -346.97807879  -0.0000000369  0.000004  0.000005  0.000020  0.000000
                  ***Gradient check signals convergence***
              ***Rediagonalizing the Fockian in SOSCF/NRSCF***

               *****************************************************
               *                     SUCCESS                       *
               *           SCF CONVERGED AFTER  13 CYCLES          *
               *****************************************************


----------------
TOTAL SCF ENERGY
----------------

Total Energy       :         -346.97807879 Eh           -9441.75353 eV

Components:
Nuclear Repulsion  :          382.28834145 Eh           10402.59463 eV
Electronic Energy  :         -729.26642024 Eh          -19844.34816 eV

One Electron Energy:        -1228.37887135 Eh          -33425.88843 eV
Two Electron Energy:          499.11245111 Eh           13581.54027 eV

Virial components:
Potential Energy   :         -693.48309098 Eh          -18870.63427 eV
Kinetic Energy     :          346.50501218 Eh            9428.88074 eV
Virial Ratio       :            2.00136525


---------------
SCF CONVERGENCE
---------------

  Last Energy change         ...   -1.6576e-09  Tolerance :   1.0000e-08
  Last MAX-Density change    ...    6.7260e-06  Tolerance :   1.0000e-07
  Last RMS-Density change    ...    1.4996e-07  Tolerance :   5.0000e-09
  Last Orbital Gradient      ...    1.3202e-06  Tolerance :   1.0000e-05
  Last Orbital Rotation      ...    2.0047e-06  Tolerance :   1.0000e-05

             **** THE GBW FILE WAS UPDATED (dsgdb9nsd_012104.gbw) ****
             **** DENSITY FILE WAS UPDATED (dsgdb9nsd_012104.scfp.tmp) ****
             **** ENERGY FILE WAS UPDATED (dsgdb9nsd_012104.en.tmp) ****
----------------
ORBITAL ENERGIES
----------------

  NO   OCC          E(Eh)            E(eV) 
   0   2.0000     -20.558126      -559.4151 
   1   2.0000     -11.287691      -307.1537 
   2   2.0000     -11.275083      -306.8106 
   3   2.0000     -11.229629      -305.5738 
   4   2.0000     -11.228895      -305.5538 
   5   2.0000     -11.223623      -305.4103 
   6   2.0000     -11.222664      -305.3842 
   7   2.0000     -11.219745      -305.3048 
   8   2.0000      -1.402591       -38.1664 
   9   2.0000      -1.144237       -31.1363 
  10   2.0000      -1.034275       -28.1441 
  11   2.0000      -0.958009       -26.0688 
  12   2.0000      -0.903655       -24.5897 
  13   2.0000      -0.821676       -22.3589 
  14   2.0000      -0.799240       -21.7484 
  15   2.0000      -0.758920       -20.6513 
  16   2.0000      -0.685577       -18.6555 
  17   2.0000      -0.650373       -17.6975 
  18   2.0000      -0.640638       -17.4327 
  19   2.0000      -0.625211       -17.0128 
  20   2.0000      -0.586407       -15.9569 
  21   2.0000      -0.564282       -15.3549 
  22   2.0000      -0.539346       -14.6763 
  23   2.0000      -0.517146       -14.0722 
  24   2.0000      -0.510480       -13.8909 
  25   2.0000      -0.507387       -13.8067 
  26   2.0000      -0.500889       -13.6299 
  27   2.0000      -0.443439       -12.0666 
  28   2.0000      -0.429538       -11.6883 
  29   2.0000      -0.406815       -11.0700 
  30   2.0000      -0.401330       -10.9207 
  31   0.0000       0.139036         3.7834 
  32   0.0000       0.160634         4.3711 
  33   0.0000       0.164951         4.4885 
  34   0.0000       0.170236         4.6323 
  35   0.0000       0.190608         5.1867 
  36   0.0000       0.193555         5.2669 
  37   0.0000       0.202878         5.5206 
  38   0.0000       0.218036         5.9331 
  39   0.0000       0.223806         6.0901 
  40   0.0000       0.230710         6.2779 
  41   0.0000       0.240064         6.5325 
  42   0.0000       0.253756         6.9051 
  43   0.0000       0.259009         7.0480 
  44   0.0000       0.271240         7.3808 
  45   0.0000       0.275594         7.4993 
  46   0.0000       0.285460         7.7678 
  47   0.0000       0.294609         8.0167 
  48   0.0000       0.313902         8.5417 
  49   0.0000       0.321705         8.7540 
  50   0.0000       0.339096         9.2273 
  51   0.0000       0.353638         9.6230 
  52   0.0000       0.357575         9.7301 
  53   0.0000       0.387365        10.5407 
  54   0.0000       0.390858        10.6358 
  55   0.0000       0.401198        10.9172 
  56   0.0000       0.406823        11.0702 
  57   0.0000       0.438437        11.9305 
  58   0.0000       0.446394        12.1470 
  59   0.0000       0.463948        12.6247 
  60   0.0000       0.491990        13.3877 
  61   0.0000       0.495210        13.4754 
  62   0.0000       0.501780        13.6541 
  63   0.0000       0.516699        14.0601 
  64   0.0000       0.533271        14.5111 
  65   0.0000       0.544055        14.8045 
  66   0.0000       0.554996        15.1022 
  67   0.0000       0.567198        15.4342 
  68   0.0000       0.570048        15.5118 
  69   0.0000       0.575780        15.6678 
  70   0.0000       0.583467        15.8769 
  71   0.0000       0.603880        16.4324 
  72   0.0000       0.611373        16.6363 
  73   0.0000       0.615191        16.7402 
  74   0.0000       0.624173        16.9846 
  75   0.0000       0.638329        17.3698 
  76   0.0000       0.640109        17.4183 
  77   0.0000       0.655161        17.8278 
  78   0.0000       0.663920        18.0662 
  79   0.0000       0.668833        18.1999 
  80   0.0000       0.678752        18.4698 
  81   0.0000       0.685298        18.6479 
  82   0.0000       0.688495        18.7349 
  83   0.0000       0.703538        19.1442 
  84   0.0000       0.715263        19.4633 
  85   0.0000       0.728870        19.8336 
  86   0.0000       0.740223        20.1425 
  87   0.0000       0.768810        20.9204 
  88   0.0000       0.775353        21.0984 
  89   0.0000       0.804692        21.8968 
  90   0.0000       0.820156        22.3176 
  91   0.0000       0.840808        22.8795 
  92   0.0000       0.890725        24.2378 
  93   0.0000       0.904782        24.6204 
  94   0.0000       0.933452        25.4005 
  95   0.0000       0.945191        25.7199 
  96   0.0000       0.986231        26.8367 
  97   0.0000       1.030271        28.0351 
  98   0.0000       1.059003        28.8169 
  99   0.0000       1.059908        28.8416 
 100   0.0000       1.074044        29.2262 
 101   0.0000       1.087405        29.5898 
 102   0.0000       1.104770        30.0623 
 103   0.0000       1.127332        30.6763 
 104   0.0000       1.134146        30.8617 
 105   0.0000       1.153948        31.4005 
 106   0.0000       1.173800        31.9407 
 107   0.0000       1.185288        32.2533 
 108   0.0000       1.213679        33.0259 
 109   0.0000       1.225201        33.3394 
 110   0.0000       1.236173        33.6380 
 111   0.0000       1.249451        33.9993 
 112   0.0000       1.263644        34.3855 
 113   0.0000       1.282094        34.8876 
 114   0.0000       1.285744        34.9869 
 115   0.0000       1.311399        35.6850 
 116   0.0000       1.333861        36.2962 
 117   0.0000       1.345434        36.6111 
 118   0.0000       1.349261        36.7153 
 119   0.0000       1.393257        37.9124 
 120   0.0000       1.397340        38.0235 
 121   0.0000       1.415784        38.5254 
 122   0.0000       1.437023        39.1034 
 123   0.0000       1.451574        39.4993 
 124   0.0000       1.509817        41.0842 
 125   0.0000       1.523191        41.4481 
 126   0.0000       1.544674        42.0327 
 127   0.0000       1.574084        42.8330 
 128   0.0000       1.599833        43.5337 
 129   0.0000       1.615753        43.9669 
 130   0.0000       1.638649        44.5899 
 131   0.0000       1.706771        46.4436 
 132   0.0000       1.731021        47.1035 
 133   0.0000       1.779932        48.4344 
 134   0.0000       1.796762        48.8924 
 135   0.0000       1.801568        49.0232 
 136   0.0000       1.832068        49.8531 
 137   0.0000       1.836487        49.9734 
 138   0.0000       1.857956        50.5575 
 139   0.0000       1.872930        50.9650 
 140   0.0000       1.894371        51.5484 
 141   0.0000       1.897791        51.6415 
 142   0.0000       1.900443        51.7137 
 143   0.0000       1.915688        52.1285 
 144   0.0000       1.925561        52.3972 
 145   0.0000       1.952404        53.1276 
 146   0.0000       1.959063        53.3088 
 147   0.0000       1.975153        53.7466 
 148   0.0000       2.005668        54.5770 
 149   0.0000       2.020034        54.9679 
 150   0.0000       2.027913        55.1823 
 151   0.0000       2.061252        56.0895 
 152   0.0000       2.079531        56.5869 
 153   0.0000       2.120481        57.7012 
 154   0.0000       2.126530        57.8658 
 155   0.0000       2.141751        58.2800 
 156   0.0000       2.153889        58.6103 
 157   0.0000       2.171766        59.0967 
 158   0.0000       2.193256        59.6815 
 159   0.0000       2.212309        60.2000 
 160   0.0000       2.225157        60.5496 
 161   0.0000       2.255955        61.3877 
 162   0.0000       2.277681        61.9789 
 163   0.0000       2.300114        62.5893 
 164   0.0000       2.326028        63.2944 
 165   0.0000       2.354960        64.0817 
 166   0.0000       2.360842        64.2418 
 167   0.0000       2.389244        65.0146 
 168   0.0000       2.425707        66.0069 
 169   0.0000       2.443785        66.4988 
 170   0.0000       2.488583        67.7178 
 171   0.0000       2.503575        68.1257 
 172   0.0000       2.518161        68.5226 
 173   0.0000       2.534470        68.9664 
 174   0.0000       2.572958        70.0137 
 175   0.0000       2.609433        71.0063 
 176   0.0000       2.619371        71.2767 
 177   0.0000       2.645404        71.9851 
 178   0.0000       2.652976        72.1911 
 179   0.0000       2.657809        72.3227 
 180   0.0000       2.696936        73.3874 
 181   0.0000       2.711482        73.7832 
 182   0.0000       2.727203        74.2110 
 183   0.0000       2.738285        74.5125 
 184   0.0000       2.765364        75.2494 
 185   0.0000       2.779140        75.6243 
 186   0.0000       2.790173        75.9245 
 187   0.0000       2.799837        76.1874 
 188   0.0000       2.818977        76.7083 
 189   0.0000       2.830192        77.0134 
 190   0.0000       2.843276        77.3695 
 191   0.0000       2.862445        77.8911 
 192   0.0000       2.867412        78.0262 
 193   0.0000       2.884793        78.4992 
 194   0.0000       2.908335        79.1398 
 195   0.0000       2.930395        79.7401 
 196   0.0000       2.934145        79.8421 
 197   0.0000       2.943584        80.0990 
 198   0.0000       2.950069        80.2755 
 199   0.0000       2.960701        80.5648 
 200   0.0000       2.994887        81.4950 
 201   0.0000       3.004545        81.7578 
 202   0.0000       3.030404        82.4615 
 203   0.0000       3.056517        83.1721 
 204   0.0000       3.067902        83.4819 
 205   0.0000       3.072445        83.6055 
 206   0.0000       3.103492        84.4503 
 207   0.0000       3.124285        85.0161 
 208   0.0000       3.127829        85.1125 
 209   0.0000       3.155854        85.8751 
 210   0.0000       3.188710        86.7692 
 211   0.0000       3.196801        86.9894 
 212   0.0000       3.208594        87.3103 
 213   0.0000       3.243587        88.2625 
 214   0.0000       3.270433        88.9930 
 215   0.0000       3.286859        89.4400 
 216   0.0000       3.336863        90.8007 
 217   0.0000       3.345049        91.0234 
 218   0.0000       3.362494        91.4981 
 219   0.0000       3.371178        91.7344 
 220   0.0000       3.388691        92.2110 
 221   0.0000       3.402000        92.5731 
 222   0.0000       3.414377        92.9099 
 223   0.0000       3.423859        93.1679 
 224   0.0000       3.427421        93.2649 
 225   0.0000       3.469599        94.4126 
 226   0.0000       3.480768        94.7165 
 227   0.0000       3.489189        94.9457 
 228   0.0000       3.509022        95.4854 
 229   0.0000       3.522785        95.8598 
 230   0.0000       3.555464        96.7491 
 231   0.0000       3.565334        97.0177 
 232   0.0000       3.602748        98.0358 
 233   0.0000       3.608956        98.2047 
 234   0.0000       3.632805        98.8536 
 235   0.0000       3.638832        99.0176 
 236   0.0000       3.666380        99.7673 
 237   0.0000       3.676603       100.0455 
 238   0.0000       3.694029       100.5196 
 239   0.0000       3.718310       101.1804 
 240   0.0000       3.730237       101.5049 
 241   0.0000       3.757611       102.2498 
 242   0.0000       3.780750       102.8794 
 243   0.0000       3.791643       103.1759 
 244   0.0000       3.809747       103.6685 
 245   0.0000       3.827910       104.1627 
 246   0.0000       3.832516       104.2881 
 247   0.0000       3.859176       105.0135 
 248   0.0000       3.885944       105.7419 
 249   0.0000       3.914042       106.5065 
 250   0.0000       3.918213       106.6200 
 251   0.0000       3.931355       106.9776 
 252   0.0000       3.966389       107.9309 
 253   0.0000       3.987702       108.5109 
 254   0.0000       4.002541       108.9147 
 255   0.0000       4.035629       109.8151 
 256   0.0000       4.078609       110.9846 
 257   0.0000       4.115783       111.9961 
 258   0.0000       4.146520       112.8325 
 259   0.0000       4.169524       113.4585 
 260   0.0000       4.220149       114.8361 
 261   0.0000       4.249089       115.6236 
 262   0.0000       4.261130       115.9512 
 263   0.0000       4.283139       116.5501 
 264   0.0000       4.318542       117.5135 
 265   0.0000       4.356503       118.5465 
 266   0.0000       4.359145       118.6184 
 267   0.0000       4.393383       119.5500 
 268   0.0000       4.423306       120.3643 
 269   0.0000       4.450259       121.0977 
 270   0.0000       4.461723       121.4096 
 271   0.0000       4.491878       122.2302 
 272   0.0000       4.506112       122.6175 
 273   0.0000       4.537000       123.4581 
 274   0.0000       4.544379       123.6588 
 275   0.0000       4.572153       124.4146 
 276   0.0000       4.619102       125.6921 
 277   0.0000       4.661868       126.8559 
 278   0.0000       4.684904       127.4827 
 279   0.0000       4.705793       128.0511 
 280   0.0000       4.754117       129.3661 
 281   0.0000       4.792786       130.4183 
 282   0.0000       4.805540       130.7654 
 283   0.0000       4.839567       131.6913 
 284   0.0000       4.864102       132.3590 
 285   0.0000       4.888188       133.0144 
 286   0.0000       4.937852       134.3658 
 287   0.0000       4.984170       135.6262 
 288   0.0000       5.027879       136.8155 
 289   0.0000       5.052669       137.4901 
 290   0.0000       5.114983       139.1858 
 291   0.0000       5.153734       140.2402 
 292   0.0000       5.181270       140.9895 
 293   0.0000       5.250183       142.8647 
 294   0.0000       5.283212       143.7635 
 295   0.0000       5.312099       144.5496 
 296   0.0000       5.375022       146.2618 
 297   0.0000       5.400580       146.9572 
 298   0.0000       5.443674       148.1299 
 299   0.0000       5.549086       150.9983 
 300   0.0000       5.807828       158.0390 
 301   0.0000       6.004593       163.3933 
 302   0.0000       6.218640       169.2178 
 303   0.0000       6.275954       170.7774 
 304   0.0000       6.331326       172.2841 
 305   0.0000       6.447762       175.4525 
 306   0.0000       6.585200       179.1924 
 307   0.0000       7.189399       195.6335 
 308   0.0000       7.228531       196.6983 
 309   0.0000       7.422265       201.9701 
 310   0.0000       7.549962       205.4449 
 311   0.0000       7.765498       211.3099 
 312   0.0000      23.438133       637.7840 
 313   0.0000      23.470326       638.6600 
 314   0.0000      23.516043       639.9041 
 315   0.0000      23.578544       641.6048 
 316   0.0000      23.681714       644.4122 
 317   0.0000      23.716067       645.3470 
 318   0.0000      23.827080       648.3678 
 319   0.0000      45.718742      1244.0702 

                    ********************************
                    * MULLIKEN POPULATION ANALYSIS *
                    ********************************

-----------------------
MULLIKEN ATOMIC CHARGES
-----------------------
   0 C :   -0.374590
   1 C :    0.282662
   2 C :   -0.172467
   3 C :   -0.074578
   4 C :   -0.252640
   5 C :   -0.216850
   6 C :   -0.007241
   7 O :   -0.466851
   8 H :    0.118722
   9 H :    0.101882
  10 H :    0.127655
  11 H :    0.099755
  12 H :    0.098766
  13 H :    0.118040
  14 H :    0.109667
  15 H :    0.103990
  16 H :    0.103731
  17 H :    0.111247
  18 H :    0.094156
  19 H :    0.094946
Sum of atomic charges:    0.0000000

--------------------------------
MULLIKEN REDUCED ORBITAL CHARGES
--------------------------------
  0 C s       :     3.263784  s :     3.263784
      pz      :     1.038731  p :     3.032688
      px      :     1.074131
      py      :     0.919826
      dz2     :     0.015237  d :     0.073469
      dxz     :     0.009283
      dyz     :     0.012845
      dx2y2   :     0.016477
      dxy     :     0.019628
      f0      :     0.000727  f :     0.004649
      f+1     :     0.000743
      f-1     :     0.000531
      f+2     :     0.000458
      f-2     :     0.000297
      f+3     :     0.000759
      f-3     :     0.001135
  1 C s       :     3.048391  s :     3.048391
      pz      :     0.710333  p :     2.432699
      px      :     0.853824
      py      :     0.868542
      dz2     :     0.039584  d :     0.218841
      dxz     :     0.036659
      dyz     :     0.037913
      dx2y2   :     0.049950
      dxy     :     0.054736
      f0      :     0.002357  f :     0.017408
      f+1     :     0.002515
      f-1     :     0.002151
      f+2     :     0.002565
      f-2     :     0.002425
      f+3     :     0.002937
      f-3     :     0.002459
  2 C s       :     3.123504  s :     3.123504
      pz      :     0.988698  p :     2.929405
      px      :     0.939238
      py      :     1.001469
      dz2     :     0.026308  d :     0.112787
      dxz     :     0.024875
      dyz     :     0.007938
      dx2y2   :     0.030656
      dxy     :     0.023010
      f0      :     0.000877  f :     0.006771
      f+1     :     0.001472
      f-1     :     0.000438
      f+2     :     0.000765
      f-2     :     0.000762
      f+3     :     0.001093
      f-3     :     0.001364
  3 C s       :     3.127533  s :     3.127533
      pz      :     0.941437  p :     2.819892
      px      :     0.875110
      py      :     1.003345
      dz2     :     0.028174  d :     0.116946
      dxz     :     0.023854
      dyz     :     0.011249
      dx2y2   :     0.025820
      dxy     :     0.027849
      f0      :     0.001248  f :     0.010207
      f+1     :     0.001813
      f-1     :     0.000494
      f+2     :     0.001259
      f-2     :     0.001337
      f+3     :     0.001944
      f-3     :     0.002112
  4 C s       :     3.210500  s :     3.210500
      pz      :     1.022559  p :     2.952324
      px      :     1.054444
      py      :     0.875321
      dz2     :     0.016070  d :     0.081651
      dxz     :     0.006513
      dyz     :     0.017581
      dx2y2   :     0.020148
      dxy     :     0.021340
      f0      :     0.001052  f :     0.008165
      f+1     :     0.000214
      f-1     :     0.001470
      f+2     :     0.000979
      f-2     :     0.000848
      f+3     :     0.001643
      f-3     :     0.001960
  5 C s       :     3.196935  s :     3.196935
      pz      :     1.040460  p :     2.931253
      px      :     0.930044
      py      :     0.960749
      dz2     :     0.013022  d :     0.080492
      dxz     :     0.014347
      dyz     :     0.013340
      dx2y2   :     0.021208
      dxy     :     0.018575
      f0      :     0.000443  f :     0.008172
      f+1     :     0.001311
      f-1     :     0.001052
      f+2     :     0.001033
      f-2     :     0.000680
      f+3     :     0.001784
      f-3     :     0.001869
  6 C s       :     3.192502  s :     3.192502
      pz      :     0.736806  p :     2.675046
      px      :     0.962919
      py      :     0.975321
      dz2     :     0.031107  d :     0.126809
      dxz     :     0.027414
      dyz     :     0.024740
      dx2y2   :     0.027175
      dxy     :     0.016373
      f0      :     0.002525  f :     0.012884
      f+1     :     0.002112
      f-1     :     0.002340
      f+2     :     0.001437
      f-2     :     0.001689
      f+3     :     0.000948
      f-3     :     0.001833
  7 O s       :     3.864242  s :     3.864242
      pz      :     1.308726  p :     4.556676
      px      :     1.517337
      py      :     1.730613
      dz2     :     0.014521  d :     0.043696
      dxz     :     0.014488
      dyz     :     0.009382
      dx2y2   :     0.002639
      dxy     :     0.002665
      f0      :     0.000660  f :     0.002238
      f+1     :     0.000496
      f-1     :     0.000378
      f+2     :     0.000240
      f-2     :     0.000324
      f+3     :     0.000055
      f-3     :     0.000085
  8 H s       :     0.859364  s :     0.859364
      pz      :     0.003650  p :     0.021915
      px      :     0.012863
      py      :     0.005401
  9 H s       :     0.876436  s :     0.876436
      pz      :     0.013047  p :     0.021682
      px      :     0.004725
      py      :     0.003910
 10 H s       :     0.850221  s :     0.850221
      pz      :     0.007556  p :     0.022125
      px      :     0.007571
      py      :     0.006998
 11 H s       :     0.878371  s :     0.878371
      pz      :     0.013065  p :     0.021874
      px      :     0.005232
      py      :     0.003577
 12 H s       :     0.879091  s :     0.879091
      pz      :     0.003919  p :     0.022143
      px      :     0.003664
      py      :     0.014561
 13 H s       :     0.858254  s :     0.858254
      pz      :     0.014065  p :     0.023706
      px      :     0.005315
      py      :     0.004325
 14 H s       :     0.867077  s :     0.867077
      pz      :     0.008296  p :     0.023256
      px      :     0.005264
      py      :     0.009696
 15 H s       :     0.872851  s :     0.872851
      pz      :     0.013820  p :     0.023159
      px      :     0.004600
      py      :     0.004738
 16 H s       :     0.873095  s :     0.873095
      pz      :     0.010443  p :     0.023174
      px      :     0.005069
      py      :     0.007662
 17 H s       :     0.865452  s :     0.865452
      pz      :     0.011484  p :     0.023300
      px      :     0.007413
      py      :     0.004403
 18 H s       :     0.883813  s :     0.883813
      pz      :     0.002832  p :     0.022031
      px      :     0.003275
      py      :     0.015924
 19 H s       :     0.883100  s :     0.883100
      pz      :     0.004394  p :     0.021954
      px      :     0.012449
      py      :     0.005110


                     *******************************
                     * LOEWDIN POPULATION ANALYSIS *
                     *******************************

----------------------
LOEWDIN ATOMIC CHARGES
----------------------
   0 C :   -0.231068
   1 C :   -0.316796
   2 C :   -0.184504
   3 C :   -0.211272
   4 C :   -0.215976
   5 C :   -0.210917
   6 C :   -0.212380
   7 O :    0.095172
   8 H :    0.120962
   9 H :    0.118434
  10 H :    0.122673
  11 H :    0.137731
  12 H :    0.139982
  13 H :    0.143451
  14 H :    0.119619
  15 H :    0.119979
  16 H :    0.121025
  17 H :    0.120457
  18 H :    0.111567
  19 H :    0.111862

-------------------------------
LOEWDIN REDUCED ORBITAL CHARGES
-------------------------------
  0 C s       :     2.818730  s :     2.818730
      pz      :     1.049475  p :     3.121034
      px      :     1.052297
      py      :     1.019261
      dz2     :     0.057240  d :     0.266656
      dxz     :     0.028043
      dyz     :     0.053206
      dx2y2   :     0.055029
      dxy     :     0.073138
      f0      :     0.002682  f :     0.024649
      f+1     :     0.002463
      f-1     :     0.003552
      f+2     :     0.003423
      f-2     :     0.003384
      f+3     :     0.004512
      f-3     :     0.004633
  1 C s       :     2.706012  s :     2.706012
      pz      :     0.783651  p :     2.767370
      px      :     0.967907
      py      :     1.015812
      dz2     :     0.130758  d :     0.740383
      dxz     :     0.143052
      dyz     :     0.123090
      dx2y2   :     0.174978
      dxy     :     0.168504
      f0      :     0.015108  f :     0.103031
      f+1     :     0.015882
      f-1     :     0.011734
      f+2     :     0.014575
      f-2     :     0.016625
      f+3     :     0.018389
      f-3     :     0.010719
  2 C s       :     2.760982  s :     2.760982
      pz      :     1.005307  p :     2.985642
      px      :     0.980150
      py      :     1.000185
      dz2     :     0.096064  d :     0.399859
      dxz     :     0.091188
      dyz     :     0.028310
      dx2y2   :     0.108057
      dxy     :     0.076239
      f0      :     0.004172  f :     0.038021
      f+1     :     0.006725
      f-1     :     0.003482
      f+2     :     0.005184
      f-2     :     0.005638
      f+3     :     0.006690
      f-3     :     0.006130
  3 C s       :     2.716260  s :     2.716260
      pz      :     0.991562  p :     2.937733
      px      :     0.948403
      py      :     0.997769
      dz2     :     0.108239  d :     0.501650
      dxz     :     0.119624
      dyz     :     0.050062
      dx2y2   :     0.112138
      dxy     :     0.111587
      f0      :     0.006781  f :     0.055629
      f+1     :     0.007876
      f-1     :     0.003810
      f+2     :     0.007548
      f-2     :     0.007328
      f+3     :     0.009967
      f-3     :     0.012319
  4 C s       :     2.770939  s :     2.770939
      pz      :     1.017761  p :     3.036646
      px      :     1.041294
      py      :     0.977591
      dz2     :     0.061498  d :     0.366383
      dxz     :     0.031184
      dyz     :     0.108153
      dx2y2   :     0.092518
      dxy     :     0.073031
      f0      :     0.005095  f :     0.042008
      f+1     :     0.002034
      f-1     :     0.004931
      f+2     :     0.004969
      f-2     :     0.005365
      f+3     :     0.008403
      f-3     :     0.011212
  5 C s       :     2.769271  s :     2.769271
      pz      :     1.023398  p :     3.032874
      px      :     0.994664
      py      :     1.014812
      dz2     :     0.044436  d :     0.366513
      dxz     :     0.084014
      dyz     :     0.071965
      dx2y2   :     0.071579
      dxy     :     0.094520
      f0      :     0.003701  f :     0.042260
      f+1     :     0.004858
      f-1     :     0.004757
      f+2     :     0.005582
      f-2     :     0.002252
      f+3     :     0.009046
      f-3     :     0.012063
  6 C s       :     2.800643  s :     2.800643
      pz      :     0.806525  p :     2.852497
      px      :     1.025383
      py      :     1.020590
      dz2     :     0.113442  d :     0.484994
      dxz     :     0.102973
      dyz     :     0.092399
      dx2y2   :     0.112283
      dxy     :     0.063897
      f0      :     0.017502  f :     0.074245
      f+1     :     0.012179
      f-1     :     0.014830
      f+2     :     0.006499
      f-2     :     0.011201
      f+3     :     0.005975
      f-3     :     0.006059
  7 O s       :     3.368142  s :     3.368142
      pz      :     1.390201  p :     4.442682
      px      :     1.436993
      py      :     1.615488
      dz2     :     0.033150  d :     0.087724
      dxz     :     0.022037
      dyz     :     0.016393
      dx2y2   :     0.007522
      dxy     :     0.008622
      f0      :     0.002110  f :     0.006280
      f+1     :     0.001247
      f-1     :     0.000788
      f+2     :     0.000865
      f-2     :     0.001014
      f+3     :     0.000174
      f-3     :     0.000082
  8 H s       :     0.819300  s :     0.819300
      pz      :     0.012207  p :     0.059738
      px      :     0.033078
      py      :     0.014453
  9 H s       :     0.822379  s :     0.822379
      pz      :     0.032511  p :     0.059187
      px      :     0.014862
      py      :     0.011814
 10 H s       :     0.816585  s :     0.816585
      pz      :     0.021539  p :     0.060742
      px      :     0.021246
      py      :     0.017957
 11 H s       :     0.806001  s :     0.806001
      pz      :     0.029929  p :     0.056269
      px      :     0.014517
      py      :     0.011822
 12 H s       :     0.803184  s :     0.803184
      pz      :     0.012599  p :     0.056835
      px      :     0.011474
      py      :     0.032762
 13 H s       :     0.796823  s :     0.796823
      pz      :     0.032353  p :     0.059726
      px      :     0.013368
      py      :     0.014005
 14 H s       :     0.818667  s :     0.818667
      pz      :     0.023299  p :     0.061714
      px      :     0.015955
      py      :     0.022461
 15 H s       :     0.818610  s :     0.818610
      pz      :     0.034077  p :     0.061410
      px      :     0.014769
      py      :     0.012564
 16 H s       :     0.817668  s :     0.817668
      pz      :     0.027707  p :     0.061308
      px      :     0.014068
      py      :     0.019532
 17 H s       :     0.817921  s :     0.817921
      pz      :     0.029698  p :     0.061622
      px      :     0.018719
      py      :     0.013204
 18 H s       :     0.829046  s :     0.829046
      pz      :     0.009316  p :     0.059387
      px      :     0.011332
      py      :     0.038739
 19 H s       :     0.828768  s :     0.828768
      pz      :     0.012688  p :     0.059370
      px      :     0.030197
      py      :     0.016485


                      *****************************
                      * MAYER POPULATION ANALYSIS *
                      *****************************

  NA   - Mulliken gross atomic population
  ZA   - Total nuclear charge
  QA   - Mulliken gross atomic charge
  VA   - Mayer's total valence
  BVA  - Mayer's bonded valence
  FA   - Mayer's free valence

  ATOM       NA         ZA         QA         VA         BVA        FA
  0 C      6.3746     6.0000    -0.3746     3.9377     3.9377    -0.0000
  1 C      5.7173     6.0000     0.2827     3.7719     3.7719    -0.0000
  2 C      6.1725     6.0000    -0.1725     3.9164     3.9164    -0.0000
  3 C      6.0746     6.0000    -0.0746     3.7931     3.7931     0.0000
  4 C      6.2526     6.0000    -0.2526     3.9189     3.9189     0.0000
  5 C      6.2169     6.0000    -0.2169     3.9040     3.9040     0.0000
  6 C      6.0072     6.0000    -0.0072     3.9425     3.9425     0.0000
  7 O      8.4669     8.0000    -0.4669     1.8472     1.8472     0.0000
  8 H      0.8813     1.0000     0.1187     0.9724     0.9724    -0.0000
  9 H      0.8981     1.0000     0.1019     0.9735     0.9735    -0.0000
 10 H      0.8723     1.0000     0.1277     0.9649     0.9649    -0.0000
 11 H      0.9002     1.0000     0.0998     0.9715     0.9715    -0.0000
 12 H      0.9012     1.0000     0.0988     0.9793     0.9793    -0.0000
 13 H      0.8820     1.0000     0.1180     0.9649     0.9649     0.0000
 14 H      0.8903     1.0000     0.1097     0.9773     0.9773    -0.0000
 15 H      0.8960     1.0000     0.1040     0.9726     0.9726     0.0000
 16 H      0.8963     1.0000     0.1037     0.9747     0.9747     0.0000
 17 H      0.8888     1.0000     0.1112     0.9780     0.9780     0.0000
 18 H      0.9058     1.0000     0.0942     0.9584     0.9584     0.0000
 19 H      0.9051     1.0000     0.0949     0.9589     0.9589     0.0000

  Mayer bond orders larger than 0.1
B(  0-C ,  1-C ) :   0.9376 B(  0-C ,  8-H ) :   0.9898 B(  0-C ,  9-H ) :   0.9890 
B(  0-C , 10-H ) :   0.9893 B(  1-C ,  2-C ) :   0.9536 B(  1-C ,  6-C ) :   1.0637 
B(  1-C ,  7-O ) :   0.8525 B(  2-C ,  3-C ) :   0.9328 B(  2-C , 11-H ) :   0.9976 
B(  2-C , 12-H ) :   0.9881 B(  3-C ,  4-C ) :   0.9657 B(  3-C ,  5-C ) :   0.9443 
B(  3-C , 13-H ) :   0.9791 B(  4-C ,  5-C ) :   0.9817 B(  4-C , 14-H ) :   0.9804 
B(  4-C , 15-H ) :   0.9743 B(  5-C , 16-H ) :   0.9762 B(  5-C , 17-H ) :   0.9834 
B(  6-C ,  7-O ) :   0.9289 B(  6-C , 18-H ) :   0.9554 B(  6-C , 19-H ) :   0.9667 


-------
TIMINGS
-------

Total SCF time: 0 days 0 hours 1 min 50 sec 

Total time                  ....     110.559 sec
Sum of individual times     ....     114.534 sec  (103.6%)

Fock matrix formation       ....     109.283 sec  ( 98.8%)
Diagonalization             ....       0.596 sec  (  0.5%)
Density matrix formation    ....       0.034 sec  (  0.0%)
Population analysis         ....       0.138 sec  (  0.1%)
Initial guess               ....       2.770 sec  (  2.5%)
Orbital Transformation      ....       0.000 sec  (  0.0%)
Orbital Orthonormalization  ....       0.000 sec  (  0.0%)
DIIS solution               ....       0.171 sec  (  0.2%)
SOSCF solution              ....       0.222 sec  (  0.2%)

   <<< Auxbasis replaced with dsgdb9nsd_012104.AUXC.tmp (Dim=788) >>> 


------------------------------------------------------------------------------
                              ORCA MP2 CALCULATION
------------------------------------------------------------------------------

Freezing NCore=16 chemical core electrons

   <<< Use J-auxbasis for calculation of Separable RI-J derivative contributions dsgdb9nsd_012104.AUXJ.tmp (Dim=818) >>> 


---------------------
RI-MP2 ENERGY+DENSITY
---------------------
Dimension of the basis                    ...  320
Memory devoted to MP2                     ... 2000 MB   
Data format for buffers                   ... DOUBLE
Compression type for matrix containers    ... UNCOMPRESSED
Overall scaling of the MP2 energy         ...   1.000e+00 Eh
Calculating two index integrals           ... done (    0.017 sec)
Cholesky decomposition of V**-1           ... done (    0.097 sec)

-----------------
RI-TRANSFORMATION (AUX index driven)
-----------------

Dimension of the orbital-basis         ... 320
Dimension of the aux-basis             ... 788
Transformation of internal MOs         ...    0-  30
Transformation of internal/external MOs...    0-  30 to   31- 319
Number Format for Storage              ... Double (8 Byte)
Integral mode                          ... Direct

First Phase: integral generation and transformation of MO indices
  Aux angular momentum 0               ... done (    0.721 sec)
  Aux angular momentum 1               ... done (    0.949 sec)
  Aux angular momentum 2               ... done (    0.973 sec)
  Aux angular momentum 3               ... done (    0.673 sec)
  Aux angular momentum 4               ... done (    0.310 sec)
Closing buffer VIJ ( 0.00 GB; CompressionRatio= 1.93)
Closing buffer VIA ( 0.05 GB; CompressionRatio= 1.00)
  Phase 1 completed in     3.725 sec
Second Phase: sorting and transformation of aux index

IJ-Transformation
Memory available                       ... 1988 MB 
Max. # MO pairs treated in a batch     ... 31    
# of internal orbitals                 ... 31
# batches for internal orbitals        ... 1
Closing buffer IJV ( 0.00 GB; CompressionRatio= 1.00)
(ij|v) transformation done in     0.147 sec

IA-Transformation
Memory available                       ... 1988 MB 
Max. # MO pairs treated in a batch     ... 31    
# of internal orbitals                 ... 31
# batches for internal orbitals        ... 1
Closing buffer IAV ( 0.05 GB; CompressionRatio= 1.00)
(ia|v) transformation done in     1.144 sec

  Phase 2 completed in     1.421 sec
RI-Integral transformation completed in     5.146 sec
Opening buffers                              ... done
Frozen core precalculation                   ... done

Starting loop over batches of integrals:

Operator 0  - window                       ... (  8- 30)x( 31-319)
Operator 0  - Memory available             ...  2000 MB
Operator 0  - Memory needed per MO         ...   3.5 MB
Operator 0  - Number of orbitals per batch ... 23
Operator 0  - Number of batches            ... 1

OPERATOR  0   PASS   0:  MOs     8 ...   30
  Reading integrals       ... ok
  Internal MO  10
  Internal MO  13
  Internal MO  16
  Internal MO  19
  Internal MO  22
  Internal MO  25
  Internal MO  28
Time spent in pair loops =    28.619 sec
Deleting buffer (Ka|jb)[aa] ...done

-----------------------------------------------
 RI-MP2 CORRELATION ENERGY:     -1.388517631 Eh
-----------------------------------------------


---------------------
MP2 DENSITY FORMATION
---------------------

Completing the external part of the density      ... done
Storing the unrelaxed density                    ... done

Calculating G(D)                                 ... done
Completing the Lagrangian                        ... done
Solving the Z-vector equations                   ... 

------------------------------------------------------------------------------
                           ORCA CP-SCF CALCULATION
------------------------------------------------------------------------------

Input orbitals are from        ... dsgdb9nsd_012104.gbw
Input Perturbation             ... dsgdb9nsd_012104.pin.tmp
Wavefunction output            ... dsgdb9nsd_012104.pout.tmp
Perturbation mode              ... Real perturbation
Solver                         ... POPLE
Max. number of iterations      ... 128
Convergence tolerance          ... 1.000e-08
Integral handling              ... Direct
Number of perturbations        ... 1
Number of operators            ... 1
Orbital ranges used for CP-SCF:
 Operator 0:  Orbitals   0... 30  to  31...319
Variables per vector in CP-SCF ... 8959
Number of vectors sought       ... 1
     CP-SCF ITERATION   0: 
     CP-SCF ITERATION   1:      0.000693346
     CP-SCF ITERATION   2:      0.000127718
     CP-SCF ITERATION   3:      0.000007321
     CP-SCF ITERATION   4:      0.000000674
     CP-SCF ITERATION   5:      0.000000060
     CP-SCF ITERATION   6:      0.000000006
done
Finalizing the relaxed density                   ... done
Transforming P to the AO basis                   ... done
Storing the relaxed density                      ... done

                *********************************************
                * UNRELAXED MP2 DENSITY POPULATION ANALYSIS *
                *********************************************

------------------------------------------------------------------------------
                           ORCA POPULATION ANALYSIS
------------------------------------------------------------------------------
Input electron density              ... dsgdb9nsd_012104.pmp2ur
BaseName (.gbw .S,...)              ... dsgdb9nsd_012104

                    ********************************
                    * MULLIKEN POPULATION ANALYSIS *
                    ********************************

-----------------------
MULLIKEN ATOMIC CHARGES
-----------------------
   0 C :   -0.383521
   1 C :    0.268629
   2 C :   -0.181017
   3 C :   -0.079557
   4 C :   -0.259690
   5 C :   -0.223983
   6 C :   -0.022081
   7 O :   -0.444041
   8 H :    0.121952
   9 H :    0.105150
  10 H :    0.131034
  11 H :    0.103678
  12 H :    0.102601
  13 H :    0.122478
  14 H :    0.113366
  15 H :    0.107683
  16 H :    0.107310
  17 H :    0.114971
  18 H :    0.097117
  19 H :    0.097919
Sum of atomic charges:    0.0000000

--------------------------------
MULLIKEN REDUCED ORBITAL CHARGES
--------------------------------
  0 C s       :     3.261604  s :     3.261604
      pz      :     1.032967  p :     3.014447
      px      :     1.067692
      py      :     0.913789
      dz2     :     0.020217  d :     0.099114
      dxz     :     0.015026
      dyz     :     0.018340
      dx2y2   :     0.020511
      dxy     :     0.025019
      f0      :     0.001253  f :     0.008355
      f+1     :     0.001235
      f-1     :     0.001086
      f+2     :     0.001008
      f-2     :     0.000826
      f+3     :     0.001350
      f-3     :     0.001598
  1 C s       :     3.047393  s :     3.047393
      pz      :     0.713712  p :     2.425182
      px      :     0.849059
      py      :     0.862412
      dz2     :     0.042968  d :     0.237367
      dxz     :     0.040279
      dyz     :     0.042592
      dx2y2   :     0.053591
      dxy     :     0.057937
      f0      :     0.002877  f :     0.021429
      f+1     :     0.002941
      f-1     :     0.002662
      f+2     :     0.003150
      f-2     :     0.003010
      f+3     :     0.003786
      f-3     :     0.003004
  2 C s       :     3.121823  s :     3.121823
      pz      :     0.983342  p :     2.911221
      px      :     0.931996
      py      :     0.995883
      dz2     :     0.031217  d :     0.137302
      dxz     :     0.029471
      dyz     :     0.013939
      dx2y2   :     0.035287
      dxy     :     0.027388
      f0      :     0.001461  f :     0.010671
      f+1     :     0.002000
      f-1     :     0.000981
      f+2     :     0.001344
      f-2     :     0.001311
      f+3     :     0.001728
      f-3     :     0.001847
  3 C s       :     3.124591  s :     3.124591
      pz      :     0.936980  p :     2.800977
      px      :     0.868739
      py      :     0.995258
      dz2     :     0.032524  d :     0.139754
      dxz     :     0.028367
      dyz     :     0.016746
      dx2y2   :     0.030454
      dxy     :     0.031663
      f0      :     0.001868  f :     0.014234
      f+1     :     0.002408
      f-1     :     0.001073
      f+2     :     0.001855
      f-2     :     0.001899
      f+3     :     0.002483
      f-3     :     0.002648
  4 C s       :     3.208295  s :     3.208295
      pz      :     1.017219  p :     2.934041
      px      :     1.046006
      py      :     0.870817
      dz2     :     0.020464  d :     0.105435
      dxz     :     0.012318
      dyz     :     0.022633
      dx2y2   :     0.025113
      dxy     :     0.024907
      f0      :     0.001611  f :     0.011920
      f+1     :     0.000754
      f-1     :     0.002041
      f+2     :     0.001517
      f-2     :     0.001413
      f+3     :     0.002122
      f-3     :     0.002462
  5 C s       :     3.194601  s :     3.194601
      pz      :     1.034990  p :     2.913426
      px      :     0.923952
      py      :     0.954483
      dz2     :     0.017521  d :     0.104039
      dxz     :     0.019757
      dyz     :     0.018635
      dx2y2   :     0.024384
      dxy     :     0.023741
      f0      :     0.001054  f :     0.011917
      f+1     :     0.001807
      f-1     :     0.001568
      f+2     :     0.001615
      f-2     :     0.001239
      f+3     :     0.002261
      f-3     :     0.002373
  6 C s       :     3.190245  s :     3.190245
      pz      :     0.740449  p :     2.668340
      px      :     0.957221
      py      :     0.970670
      dz2     :     0.034251  d :     0.147101
      dxz     :     0.031668
      dyz     :     0.029351
      dx2y2   :     0.031668
      dxy     :     0.020163
      f0      :     0.002967  f :     0.016395
      f+1     :     0.002577
      f-1     :     0.002753
      f+2     :     0.002004
      f-2     :     0.002162
      f+3     :     0.001619
      f-3     :     0.002313
  7 O s       :     3.857393  s :     3.857393
      pz      :     1.295129  p :     4.510209
      px      :     1.501414
      py      :     1.713666
      dz2     :     0.019754  d :     0.071435
      dxz     :     0.019754
      dyz     :     0.014976
      dx2y2   :     0.008483
      dxy     :     0.008467
      f0      :     0.001077  f :     0.005004
      f+1     :     0.000910
      f-1     :     0.000794
      f+2     :     0.000642
      f-2     :     0.000718
      f+3     :     0.000419
      f-3     :     0.000445
  8 H s       :     0.853040  s :     0.853040
      pz      :     0.004760  p :     0.025007
      px      :     0.013763
      py      :     0.006483
  9 H s       :     0.870039  s :     0.870039
      pz      :     0.013948  p :     0.024811
      px      :     0.005827
      py      :     0.005035
 10 H s       :     0.843753  s :     0.843753
      pz      :     0.008566  p :     0.025213
      px      :     0.008595
      py      :     0.008052
 11 H s       :     0.871261  s :     0.871261
      pz      :     0.014004  p :     0.025062
      px      :     0.006336
      py      :     0.004721
 12 H s       :     0.872108  s :     0.872108
      pz      :     0.005038  p :     0.025290
      px      :     0.004797
      py      :     0.015455
 13 H s       :     0.850789  s :     0.850789
      pz      :     0.014930  p :     0.026733
      px      :     0.006358
      py      :     0.005445
 14 H s       :     0.860362  s :     0.860362
      pz      :     0.009288  p :     0.026272
      px      :     0.006371
      py      :     0.010614
 15 H s       :     0.866108  s :     0.866108
      pz      :     0.014675  p :     0.026209
      px      :     0.005738
      py      :     0.005796
 16 H s       :     0.866489  s :     0.866489
      pz      :     0.011391  p :     0.026201
      px      :     0.006143
      py      :     0.008667
 17 H s       :     0.858723  s :     0.858723
      pz      :     0.012389  p :     0.026306
      px      :     0.008426
      py      :     0.005492
 18 H s       :     0.877758  s :     0.877758
      pz      :     0.004030  p :     0.025125
      px      :     0.004404
      py      :     0.016691
 19 H s       :     0.877032  s :     0.877032
      pz      :     0.005554  p :     0.025049
      px      :     0.013323
      py      :     0.006172


                     *******************************
                     * LOEWDIN POPULATION ANALYSIS *
                     *******************************

----------------------
LOEWDIN ATOMIC CHARGES
----------------------
   0 C :   -0.238160
   1 C :   -0.321141
   2 C :   -0.189187
   3 C :   -0.212770
   4 C :   -0.220239
   5 C :   -0.215088
   6 C :   -0.223148
   7 O :    0.110398
   8 H :    0.122783
   9 H :    0.120194
  10 H :    0.124542
  11 H :    0.139296
  12 H :    0.141613
  13 H :    0.145311
  14 H :    0.121640
  15 H :    0.121953
  16 H :    0.122991
  17 H :    0.122469
  18 H :    0.113120
  19 H :    0.113423

-------------------------------
LOEWDIN REDUCED ORBITAL CHARGES
-------------------------------
  0 C s       :     2.817063  s :     2.817063
      pz      :     1.041797  p :     3.096431
      px      :     1.044620
      py      :     1.010014
      dz2     :     0.062818  d :     0.294505
      dxz     :     0.034008
      dyz     :     0.058865
      dx2y2   :     0.060836
      dxy     :     0.077979
      f0      :     0.003490  f :     0.030161
      f+1     :     0.003217
      f-1     :     0.004317
      f+2     :     0.004187
      f-2     :     0.004093
      f+3     :     0.005255
      f-3     :     0.005600
  1 C s       :     2.704849  s :     2.704849
      pz      :     0.783630  p :     2.749050
      px      :     0.959348
      py      :     1.006072
      dz2     :     0.134554  d :     0.757633
      dxz     :     0.146044
      dyz     :     0.126525
      dx2y2   :     0.178358
      dxy     :     0.172151
      f0      :     0.015646  f :     0.109609
      f+1     :     0.017055
      f-1     :     0.012558
      f+2     :     0.015414
      f-2     :     0.017241
      f+3     :     0.019380
      f-3     :     0.012315
  2 C s       :     2.759448  s :     2.759448
      pz      :     0.996969  p :     2.959679
      px      :     0.970583
      py      :     0.992127
      dz2     :     0.100879  d :     0.425830
      dxz     :     0.096723
      dyz     :     0.034227
      dx2y2   :     0.112533
      dxy     :     0.081468
      f0      :     0.005043  f :     0.044229
      f+1     :     0.007770
      f-1     :     0.004220
      f+2     :     0.005989
      f-2     :     0.006493
      f+3     :     0.007503
      f-3     :     0.007211
  3 C s       :     2.714966  s :     2.714966
      pz      :     0.983176  p :     2.910303
      px      :     0.939257
      py      :     0.987870
      dz2     :     0.112824  d :     0.525448
      dxz     :     0.124022
      dyz     :     0.055630
      dx2y2   :     0.116385
      dxy     :     0.116587
      f0      :     0.007686  f :     0.062054
      f+1     :     0.009029
      f-1     :     0.004561
      f+2     :     0.008331
      f-2     :     0.008297
      f+3     :     0.011007
      f-3     :     0.013143
  4 C s       :     2.769614  s :     2.769614
      pz      :     1.010335  p :     3.010317
      px      :     1.030720
      py      :     0.969262
      dz2     :     0.066987  d :     0.392565
      dxz     :     0.036895
      dyz     :     0.112532
      dx2y2   :     0.096771
      dxy     :     0.079380
      f0      :     0.005932  f :     0.047744
      f+1     :     0.002715
      f-1     :     0.005957
      f+2     :     0.005671
      f-2     :     0.006206
      f+3     :     0.009357
      f-3     :     0.011904
  5 C s       :     2.767930  s :     2.767930
      pz      :     1.015907  p :     3.006692
      px      :     0.985399
      py      :     1.005387
      dz2     :     0.050207  d :     0.392480
      dxz     :     0.088732
      dyz     :     0.076918
      dx2y2   :     0.078264
      dxy     :     0.098360
      f0      :     0.004437  f :     0.047985
      f+1     :     0.005787
      f-1     :     0.005586
      f+2     :     0.006406
      f-2     :     0.003016
      f+3     :     0.010013
      f-3     :     0.012742
  6 C s       :     2.799618  s :     2.799618
      pz      :     0.806317  p :     2.836687
      px      :     1.016792
      py      :     1.013578
      dz2     :     0.118022  d :     0.507235
      dxz     :     0.106511
      dyz     :     0.096698
      dx2y2   :     0.116600
      dxy     :     0.069405
      f0      :     0.018041  f :     0.079607
      f+1     :     0.013035
      f-1     :     0.015637
      f+2     :     0.007154
      f-2     :     0.011708
      f+3     :     0.006785
      f-3     :     0.007249
  7 O s       :     3.364121  s :     3.364121
      pz      :     1.376034  p :     4.398077
      px      :     1.422140
      py      :     1.599904
      dz2     :     0.038749  d :     0.118017
      dxz     :     0.028684
      dyz     :     0.022541
      dx2y2   :     0.013516
      dxy     :     0.014528
      f0      :     0.002543  f :     0.009387
      f+1     :     0.001787
      f-1     :     0.001280
      f+2     :     0.001311
      f-2     :     0.001452
      f+3     :     0.000549
      f-3     :     0.000465
  8 H s       :     0.812228  s :     0.812228
      pz      :     0.013489  p :     0.064989
      px      :     0.035501
      py      :     0.015999
  9 H s       :     0.815318  s :     0.815318
      pz      :     0.035009  p :     0.064488
      px      :     0.016295
      py      :     0.013183
 10 H s       :     0.809468  s :     0.809468
      pz      :     0.023263  p :     0.065991
      px      :     0.023004
      py      :     0.019724
 11 H s       :     0.798775  s :     0.798775
      pz      :     0.032577  p :     0.061930
      px      :     0.016164
      py      :     0.013189
 12 H s       :     0.795976  s :     0.795976
      pz      :     0.013978  p :     0.062411
      px      :     0.012920
      py      :     0.035514
 13 H s       :     0.789555  s :     0.789555
      pz      :     0.034912  p :     0.065134
      px      :     0.014918
      py      :     0.015304
 14 H s       :     0.811421  s :     0.811421
      pz      :     0.025169  p :     0.066939
      px      :     0.017282
      py      :     0.024488
 15 H s       :     0.811309  s :     0.811309
      pz      :     0.036607  p :     0.066738
      px      :     0.016058
      py      :     0.014073
 16 H s       :     0.810425  s :     0.810425
      pz      :     0.029835  p :     0.066584
      px      :     0.015512
      py      :     0.021237
 17 H s       :     0.810703  s :     0.810703
      pz      :     0.031887  p :     0.066828
      px      :     0.020404
      py      :     0.014537
 18 H s       :     0.822212  s :     0.822212
      pz      :     0.010800  p :     0.064668
      px      :     0.012634
      py      :     0.041235
 19 H s       :     0.821930  s :     0.821930
      pz      :     0.014329  p :     0.064647
      px      :     0.032352
      py      :     0.017967


                      *****************************
                      * MAYER POPULATION ANALYSIS *
                      *****************************

  NA   - Mulliken gross atomic population
  ZA   - Total nuclear charge
  QA   - Mulliken gross atomic charge
  VA   - Mayer's total valence
  BVA  - Mayer's bonded valence
  FA   - Mayer's free valence

  ATOM       NA         ZA         QA         VA         BVA        FA
  0 C      6.3835     6.0000    -0.3835     4.0595     3.7568     0.3027
  1 C      5.7314     6.0000     0.2686     3.8596     3.5094     0.3503
  2 C      6.1810     6.0000    -0.1810     4.0294     3.7092     0.3203
  3 C      6.0796     6.0000    -0.0796     3.8940     3.5497     0.3442
  4 C      6.2597     6.0000    -0.2597     4.0311     3.6964     0.3347
  5 C      6.2240     6.0000    -0.2240     4.0149     3.6833     0.3316
  6 C      6.0221     6.0000    -0.0221     4.0391     3.7172     0.3219
  7 O      8.4440     8.0000    -0.4440     2.1513     1.6916     0.4596
  8 H      0.8780     1.0000     0.1220     0.9810     0.9314     0.0496
  9 H      0.8948     1.0000     0.1052     0.9824     0.9315     0.0509
 10 H      0.8690     1.0000     0.1310     0.9729     0.9240     0.0490
 11 H      0.8963     1.0000     0.1037     0.9803     0.9281     0.0521
 12 H      0.8974     1.0000     0.1026     0.9880     0.9361     0.0519
 13 H      0.8775     1.0000     0.1225     0.9726     0.9231     0.0496
 14 H      0.8866     1.0000     0.1134     0.9856     0.9363     0.0493
 15 H      0.8923     1.0000     0.1077     0.9812     0.9310     0.0502
 16 H      0.8927     1.0000     0.1073     0.9835     0.9334     0.0501
 17 H      0.8850     1.0000     0.1150     0.9861     0.9372     0.0490
 18 H      0.9029     1.0000     0.0971     0.9678     0.9176     0.0502
 19 H      0.9021     1.0000     0.0979     0.9682     0.9181     0.0501

  Mayer bond orders larger than 0.1
B(  0-C ,  1-C ) :   0.8803 B(  0-C ,  8-H ) :   0.9501 B(  0-C ,  9-H ) :   0.9491 
B(  0-C , 10-H ) :   0.9494 B(  1-C ,  2-C ) :   0.8962 B(  1-C ,  6-C ) :   0.9930 
B(  1-C ,  7-O ) :   0.7813 B(  2-C ,  3-C ) :   0.8749 B(  2-C , 11-H ) :   0.9560 
B(  2-C , 12-H ) :   0.9466 B(  3-C ,  4-C ) :   0.8947 B(  3-C ,  5-C ) :   0.8753 
B(  3-C , 13-H ) :   0.9391 B(  4-C ,  5-C ) :   0.9129 B(  4-C , 14-H ) :   0.9416 
B(  4-C , 15-H ) :   0.9347 B(  5-C , 16-H ) :   0.9368 B(  5-C , 17-H ) :   0.9448 
B(  6-C ,  7-O ) :   0.8537 B(  6-C , 18-H ) :   0.9172 B(  6-C , 19-H ) :   0.9285 



                *******************************************
                * RELAXED MP2 DENSITY POPULATION ANALYSIS *
                *******************************************

------------------------------------------------------------------------------
                           ORCA POPULATION ANALYSIS
------------------------------------------------------------------------------
Input electron density              ... dsgdb9nsd_012104.pmp2re
BaseName (.gbw .S,...)              ... dsgdb9nsd_012104

                    ********************************
                    * MULLIKEN POPULATION ANALYSIS *
                    ********************************

-----------------------
MULLIKEN ATOMIC CHARGES
-----------------------
   0 C :   -0.432772
   1 C :    0.211857
   2 C :   -0.231106
   3 C :   -0.105094
   4 C :   -0.281423
   5 C :   -0.252460
   6 C :   -0.083433
   7 O :   -0.350297
   8 H :    0.138751
   9 H :    0.126929
  10 H :    0.152017
  11 H :    0.121640
  12 H :    0.121466
  13 H :    0.132727
  14 H :    0.130547
  15 H :    0.126205
  16 H :    0.123883
  17 H :    0.131135
  18 H :    0.108888
  19 H :    0.110540
Sum of atomic charges:    0.0000000

--------------------------------
MULLIKEN REDUCED ORBITAL CHARGES
--------------------------------
  0 C s       :     3.270249  s :     3.270249
      pz      :     1.056603  p :     3.067954
      px      :     1.086168
      py      :     0.925182
      dz2     :     0.016643  d :     0.086616
      dxz     :     0.012767
      dyz     :     0.017781
      dx2y2   :     0.016423
[...]
  2 C s       :     3.149167  s :     3.149167
      pz      :     1.001161  p :     2.947532
      px      :     0.933951
      py      :     1.012419
      dz2     :     0.027409  d :     0.124317
      dxz     :     0.027056
      dyz     :     0.013036
      dx2y2   :     0.032747
      dxy     :     0.024070
      f0      :     0.001431  f :     0.010091
      f+1     :     0.001831
      f-1     :     0.000931
      f+2     :     0.001326
      f-2     :     0.001241
      f+3     :     0.001704
      f-3     :     0.001626
  3 C s       :     3.163470  s :     3.163470
      pz      :     0.951261  p :     2.800630
      px      :     0.856874
      py      :     0.992495
      dz2     :     0.029066  d :     0.127417
      dxz     :     0.025584
      dyz     :     0.015980
      dx2y2   :     0.028706
      dxy     :     0.028081
      f0      :     0.001807  f :     0.013576
      f+1     :     0.002216
      f-1     :     0.001045
      f+2     :     0.001837
      f-2     :     0.001807
      f+3     :     0.002361
      f-3     :     0.002504
  4 C s       :     3.220945  s :     3.220945
      pz      :     1.034746  p :     2.956115
      px      :     1.049843
      py      :     0.871526
      dz2     :     0.016456  d :     0.092992
      dxz     :     0.012535
      dyz     :     0.020035
      dx2y2   :     0.023679
      dxy     :     0.020286
      f0      :     0.001512  f :     0.011372
      f+1     :     0.000730
      f-1     :     0.001908
      f+2     :     0.001495
      f-2     :     0.001381
      f+3     :     0.002006
      f-3     :     0.002339
  5 C s       :     3.208926  s :     3.208926
      pz      :     1.048566  p :     2.940195
      px      :     0.931246
      py      :     0.960382
      dz2     :     0.014612  d :     0.091957
      dxz     :     0.018015
      dyz     :     0.016878
      dx2y2   :     0.019169
      dxy     :     0.023283
      f0      :     0.001046  f :     0.011382
      f+1     :     0.001651
      f-1     :     0.001450
      f+2     :     0.001581
      f-2     :     0.001256
      f+3     :     0.002133
      f-3     :     0.002264
  6 C s       :     3.214541  s :     3.214541
      pz      :     0.759200  p :     2.715481
      px      :     0.967722
      py      :     0.988559
      dz2     :     0.031104  d :     0.137723
      dxz     :     0.030660
      dyz     :     0.030138
      dx2y2   :     0.028483
      dxy     :     0.017338
      f0      :     0.002799  f :     0.015688
      f+1     :     0.002446
      f-1     :     0.002592
      f+2     :     0.002034
      f-2     :     0.002096
      f+3     :     0.001614
      f-3     :     0.002108
  7 O s       :     3.854026  s :     3.854026
      pz      :     1.275941  p :     4.421290
      px      :     1.467682
      py      :     1.677668
      dz2     :     0.019890  d :     0.069996
      dxz     :     0.018486
      dyz     :     0.014665
      dx2y2   :     0.008607
      dxy     :     0.008348
      f0      :     0.001076  f :     0.004984
      f+1     :     0.000895
      f-1     :     0.000793
      f+2     :     0.000644
      f-2     :     0.000710
      f+3     :     0.000421
      f-3     :     0.000446
  8 H s       :     0.837227  s :     0.837227
      pz      :     0.005020  p :     0.024021
      px      :     0.012490
      py      :     0.006512
  9 H s       :     0.849198  s :     0.849198
      pz      :     0.012705  p :     0.023872
      px      :     0.005924
      py      :     0.005243
 10 H s       :     0.823782  s :     0.823782
      pz      :     0.008166  p :     0.024201
      px      :     0.008250
      py      :     0.007786
 11 H s       :     0.854280  s :     0.854280
      pz      :     0.012792  p :     0.024081
      px      :     0.006308
      py      :     0.004982
 12 H s       :     0.854293  s :     0.854293
      pz      :     0.005206  p :     0.024241
      px      :     0.005002
      py      :     0.014033
 13 H s       :     0.841697  s :     0.841697
      pz      :     0.013565  p :     0.025577
      px      :     0.006275
      py      :     0.005737
 14 H s       :     0.844181  s :     0.844181
      pz      :     0.008731  p :     0.025272
      px      :     0.006598
      py      :     0.009943
 15 H s       :     0.848590  s :     0.848590
      pz      :     0.013381  p :     0.025205
      px      :     0.006017
      py      :     0.005807
 16 H s       :     0.850894  s :     0.850894
      pz      :     0.010594  p :     0.025223
      px      :     0.006210
      py      :     0.008419
 17 H s       :     0.843545  s :     0.843545
      pz      :     0.011425  p :     0.025320
      px      :     0.008203
      py      :     0.005692
 18 H s       :     0.867067  s :     0.867067
      pz      :     0.004334  p :     0.024045
      px      :     0.004597
      py      :     0.015114
 19 H s       :     0.865500  s :     0.865500
      pz      :     0.005649  p :     0.023960
      px      :     0.012299
      py      :     0.006012


                     *******************************
                     * LOEWDIN POPULATION ANALYSIS *
                     *******************************

----------------------
LOEWDIN ATOMIC CHARGES
----------------------
   0 C :   -0.265136
   1 C :   -0.344298
   2 C :   -0.210074
   3 C :   -0.225684
   4 C :   -0.236157
   5 C :   -0.230899
   6 C :   -0.251949
   7 O :    0.155215
   8 H :    0.131208
   9 H :    0.129725
  10 H :    0.133131
  11 H :    0.148918
  12 H :    0.150851
  13 H :    0.153172
  14 H :    0.130267
  15 H :    0.130726
  16 H :    0.131846
  17 H :    0.131114
  18 H :    0.118845
  19 H :    0.119179

-------------------------------
LOEWDIN REDUCED ORBITAL CHARGES
-------------------------------
  0 C s       :     2.823113  s :     2.823113
      pz      :     1.056130  p :     3.131244
      px      :     1.058037
      py      :     1.017077
      dz2     :     0.058201  d :     0.280966
      dxz     :     0.031420
      dyz     :     0.058699
      dx2y2   :     0.056502
      dxy     :     0.076144
      f0      :     0.003436  f :     0.029812
      f+1     :     0.003108
      f-1     :     0.004318
      f+2     :     0.004255
      f-2     :     0.004037
      f+3     :     0.005220
      f-3     :     0.005438
  1 C s       :     2.712043  s :     2.712043
      pz      :     0.803796  p :     2.766404
      px      :     0.957182
      py      :     1.005426
      dz2     :     0.132021  d :     0.757683
      dxz     :     0.144123
      dyz     :     0.128080
      dx2y2   :     0.180167
      dxy     :     0.173292
      f0      :     0.014994  f :     0.108169
      f+1     :     0.017006
      f-1     :     0.012349
      f+2     :     0.015111
      f-2     :     0.016928
      f+3     :     0.019868
      f-3     :     0.011913
  2 C s       :     2.766494  s :     2.766494
      pz      :     1.006470  p :     2.984021
      px      :     0.975542
      py      :     1.002009
      dz2     :     0.096409  d :     0.415744
      dxz     :     0.095527
      dyz     :     0.034104
      dx2y2   :     0.110248
      dxy     :     0.079456
      f0      :     0.005016  f :     0.043815
      f+1     :     0.007591
      f-1     :     0.004188
      f+2     :     0.005991
      f-2     :     0.006610
      f+3     :     0.007463
      f-3     :     0.006956
  3 C s       :     2.720763  s :     2.720763
      pz      :     0.989734  p :     2.924294
      px      :     0.939666
      py      :     0.994894
      dz2     :     0.110415  d :     0.519100
      dxz     :     0.123021
      dyz     :     0.056161
      dx2y2   :     0.115538
      dxy     :     0.113966
      f0      :     0.007626  f :     0.061527
      f+1     :     0.008855
      f-1     :     0.004602
      f+2     :     0.008409
      f-2     :     0.008359
      f+3     :     0.010838
      f-3     :     0.012839
  4 C s       :     2.775585  s :     2.775585
      pz      :     1.021745  p :     3.030957
      px      :     1.036217
      py      :     0.972995
      dz2     :     0.063338  d :     0.382457
      dxz     :     0.037405
      dyz     :     0.110341
      dx2y2   :     0.095129
      dxy     :     0.076245
      f0      :     0.005841  f :     0.047158
      f+1     :     0.002720
      f-1     :     0.005814
      f+2     :     0.005591
      f-2     :     0.006256
      f+3     :     0.009318
      f-3     :     0.011618
  5 C s       :     2.773899  s :     2.773899
      pz      :     1.027397  p :     3.026889
      px      :     0.988445
      py      :     1.011048
      dz2     :     0.047500  d :     0.382674
      dxz     :     0.087350
      dyz     :     0.075512
      dx2y2   :     0.074669
      dxy     :     0.097644
      f0      :     0.004509  f :     0.047438
      f+1     :     0.005585
      f-1     :     0.005442
      f+2     :     0.006414
      f-2     :     0.003055
      f+3     :     0.009970
      f-3     :     0.012462
  6 C s       :     2.808646  s :     2.808646
      pz      :     0.818494  p :     2.863257
      px      :     1.021919
      py      :     1.022844
      dz2     :     0.114783  d :     0.502144
      dxz     :     0.105567
      dyz     :     0.098442
      dx2y2   :     0.115843
      dxy     :     0.067509
      f0      :     0.017444  f :     0.077902
      f+1     :     0.012867
      f-1     :     0.015471
      f+2     :     0.006841
      f-2     :     0.011388
      f+3     :     0.006851
      f-3     :     0.007040
  7 O s       :     3.369914  s :     3.369914
      pz      :     1.362180  p :     4.345607
      px      :     1.404134
      py      :     1.579293
      dz2     :     0.039331  d :     0.119745
      dxz     :     0.028907
      dyz     :     0.023009
      dx2y2   :     0.013950
      dxy     :     0.014547
      f0      :     0.002509  f :     0.009518
      f+1     :     0.001837
      f-1     :     0.001322
      f+2     :     0.001348
      f-2     :     0.001482
      f+3     :     0.000547
      f-3     :     0.000472
  8 H s       :     0.802820  s :     0.802820
      pz      :     0.014092  p :     0.065972
      px      :     0.035291
      py      :     0.016589
  9 H s       :     0.804661  s :     0.804661
      pz      :     0.034955  p :     0.065614
      px      :     0.016815
      py      :     0.013845
 10 H s       :     0.799922  s :     0.799922
      pz      :     0.023499  p :     0.066947
      px      :     0.023335
      py      :     0.020113
 11 H s       :     0.787796  s :     0.787796
      pz      :     0.032724  p :     0.063286
      px      :     0.016769
      py      :     0.013794
 12 H s       :     0.785497  s :     0.785497
      pz      :     0.014545  p :     0.063651
      px      :     0.013581
      py      :     0.035526
 13 H s       :     0.780880  s :     0.780880
      pz      :     0.034636  p :     0.065948
      px      :     0.015369
      py      :     0.015944
 14 H s       :     0.801933  s :     0.801933
      pz      :     0.025272  p :     0.067800
      px      :     0.017884
      py      :     0.024644
 15 H s       :     0.801648  s :     0.801648
      pz      :     0.036451  p :     0.067625
      px      :     0.016635
      py      :     0.014539
 16 H s       :     0.800701  s :     0.800701
      pz      :     0.029894  p :     0.067452
      px      :     0.015971
      py      :     0.021588
 17 H s       :     0.801189  s :     0.801189
      pz      :     0.031787  p :     0.067698
      px      :     0.020839
      py      :     0.015071
 18 H s       :     0.815564  s :     0.815564
      pz      :     0.011646  p :     0.065591
      px      :     0.013083
      py      :     0.040862
 19 H s       :     0.815241  s :     0.815241
      pz      :     0.015110  p :     0.065580
      px      :     0.032337
      py      :     0.018133


                      *****************************
                      * MAYER POPULATION ANALYSIS *
                      *****************************

  NA   - Mulliken gross atomic population
  ZA   - Total nuclear charge
  QA   - Mulliken gross atomic charge
  VA   - Mayer's total valence
  BVA  - Mayer's bonded valence
  FA   - Mayer's free valence

  ATOM       NA         ZA         QA         VA         BVA        FA
  0 C      6.4328     6.0000    -0.4328     4.0279     3.7285     0.2994
  1 C      5.7881     6.0000     0.2119     3.9484     3.6055     0.3429
  2 C      6.2311     6.0000    -0.2311     4.0490     3.7336     0.3154
  3 C      6.1051     6.0000    -0.1051     3.9152     3.5758     0.3395
  4 C      6.2814     6.0000    -0.2814     4.0093     3.6783     0.3309
  5 C      6.2525     6.0000    -0.2525     3.9969     3.6686     0.3283
  6 C      6.0834     6.0000    -0.0834     4.0659     3.7480     0.3179
  7 O      8.3503     8.0000    -0.3503     2.2631     1.8150     0.4482
  8 H      0.8612     1.0000     0.1388     0.9787     0.9301     0.0486
  9 H      0.8731     1.0000     0.1269     0.9763     0.9267     0.0497
 10 H      0.8480     1.0000     0.1520     0.9676     0.9196     0.0480
 11 H      0.8784     1.0000     0.1216     0.9724     0.9216     0.0508
 12 H      0.8785     1.0000     0.1215     0.9794     0.9286     0.0508
 13 H      0.8673     1.0000     0.1327     0.9721     0.9235     0.0486
 14 H      0.8695     1.0000     0.1305     0.9794     0.9309     0.0485
 15 H      0.8738     1.0000     0.1262     0.9780     0.9287     0.0493
 16 H      0.8761     1.0000     0.1239     0.9809     0.9316     0.0493
 17 H      0.8689     1.0000     0.1311     0.9799     0.9316     0.0483
 18 H      0.8911     1.0000     0.1089     0.9592     0.9101     0.0491
 19 H      0.8895     1.0000     0.1105     0.9583     0.9092     0.0490

  Mayer bond orders larger than 0.1
B(  0-C ,  1-C ) :   0.8923 B(  0-C ,  8-H ) :   0.9355 B(  0-C ,  9-H ) :   0.9360 
B(  0-C , 10-H ) :   0.9375 B(  1-C ,  2-C ) :   0.9252 B(  1-C ,  6-C ) :   0.9914 
B(  1-C ,  7-O ) :   0.8103 B(  2-C ,  3-C ) :   0.8993 B(  2-C , 11-H ) :   0.9329 
B(  2-C , 12-H ) :   0.9246 B(  3-C ,  4-C ) :   0.8945 B(  3-C ,  5-C ) :   0.8754 
B(  3-C , 13-H ) :   0.9328 B(  4-C ,  5-C ) :   0.9098 B(  4-C , 14-H ) :   0.9301 
B(  4-C , 15-H ) :   0.9259 B(  5-C , 16-H ) :   0.9264 B(  5-C , 17-H ) :   0.9321 
B(  6-C ,  7-O ) :   0.9177 B(  6-C , 18-H ) :   0.8994 B(  6-C , 19-H ) :   0.9120 



-------
TIMINGS
-------

Total time                :  634.345 sec
Integral trafo            :    5.154 sec (  0.8%)
FC preparation            :    2.532 sec (  0.4%)
I/O of integrals          :    0.042 sec (  0.0%)
K(i,j) Operators          :    6.662 sec (  1.1%)
T(i,j) pair energies      :    0.615 sec (  0.1%)
V-calculation             :    0.017 sec (  0.0%)
V**(-1/2)                 :    0.097 sec (  0.0%)
Gamma(ia|P)               :    6.626 sec (  1.0%)
Gamma-Trafo               :    1.129 sec (  0.2%)
D(virtual)                :    2.543 sec (  0.4%)
D(internal)               :    2.095 sec (  0.3%)
W(virtual)                :    0.000 sec (  0.0%)
W(internal)               :    0.000 sec (  0.0%)
L(virtual)                :    8.538 sec (  1.3%)
L(internal)               :    0.145 sec (  0.0%)
G(D)                      :   83.639 sec ( 13.2%)
G(Z)                      :    0.000 sec (  0.0%)
Z-Vector Solution         :  513.931 sec ( 81.0%)
3-Index Derivative        :    0.000 sec (  0.0%)
2-Index Derivative        :    0.000 sec (  0.0%)
Separable Gradient (RIJ)  :    0.000 sec (  0.0%)
Separable Gradient (X)    :    0.000 sec (  0.0%)


---------------------------------------
MP2 TOTAL ENERGY:     -348.366596426 Eh
---------------------------------------

-------------------------   --------------------
FINAL SINGLE POINT ENERGY      -348.366596425997
-------------------------   --------------------


                            ***************************************
                            *     ORCA property calculations      *
                            ***************************************

                                    ---------------------
                                    Active property flags
                                    ---------------------
   (+) Dipole Moment


------------------------------------------------------------------------------
                       ORCA ELECTRIC PROPERTIES CALCULATION
------------------------------------------------------------------------------

Dipole Moment Calculation                       ... on
Quadrupole Moment Calculation                   ... off
Polarizability Calculation                      ... off
GBWName                                         ... dsgdb9nsd_012104.gbw
Electron density file                           ... dsgdb9nsd_012104.scfp.tmp

-------------
DIPOLE MOMENT
-------------
                                X             Y             Z
Electronic contribution:      3.66459      -1.90073       2.03052
Nuclear contribution   :     -3.88829       1.89949      -2.81303
                        -----------------------------------------
Total Dipole Moment    :     -0.22370      -0.00124      -0.78251
                        -----------------------------------------
Magnitude (a.u.)       :      0.81386
Magnitude (Debye)      :      2.06866


                         *** MP2 UNRELAXED DENSITY ***

------------------------------------------------------------------------------
                       ORCA ELECTRIC PROPERTIES CALCULATION
------------------------------------------------------------------------------

Dipole Moment Calculation                       ... on
Quadrupole Moment Calculation                   ... off
Polarizability Calculation                      ... off
GBWName                                         ... dsgdb9nsd_012104.gbw
Electron density file                           ... dsgdb9nsd_012104.pmp2ur

-------------
DIPOLE MOMENT
-------------
                                X             Y             Z
Electronic contribution:      3.67161      -1.89886       2.06944
Nuclear contribution   :     -3.88829       1.89949      -2.81303
                        -----------------------------------------
Total Dipole Moment    :     -0.21668       0.00063      -0.74359
                        -----------------------------------------
Magnitude (a.u.)       :      0.77451
Magnitude (Debye)      :      1.96866


                           *** MP2 RELAXED DENSITY ***

------------------------------------------------------------------------------
                       ORCA ELECTRIC PROPERTIES CALCULATION
------------------------------------------------------------------------------

Dipole Moment Calculation                       ... on
Quadrupole Moment Calculation                   ... off
Polarizability Calculation                      ... off
GBWName                                         ... dsgdb9nsd_012104.gbw
Electron density file                           ... dsgdb9nsd_012104.pmp2re

-------------
DIPOLE MOMENT
-------------
                                X             Y             Z
Electronic contribution:      3.68781      -1.89425       2.14158
Nuclear contribution   :     -3.88829       1.89949      -2.81303
                        -----------------------------------------
Total Dipole Moment    :     -0.20048       0.00524      -0.67144
                        -----------------------------------------
Magnitude (a.u.)       :      0.70075
Magnitude (Debye)      :      1.78118


Timings for individual modules:

Sum of individual times         ...      748.365 sec (=  12.473 min)
GTO integral calculation        ...        0.476 sec (=   0.008 min)   0.1 %
SCF iterations                  ...      113.392 sec (=   1.890 min)  15.2 %
MP2 module                      ...      634.497 sec (=  10.575 min)  84.8 %
                             ****ORCA TERMINATED NORMALLY****
TOTAL RUN TIME: 0 days 0 hours 12 minutes 28 seconds 845 msec
