
                                 *****************
                                 * O   R   C   A *
                                 *****************

           --- An Ab Initio, DFT and Semiempirical electronic structure package ---

                  #######################################################
                  #                        -***-                        #
                  #  Department of molecular theory and spectroscopy    #
                  #              Directorship: Frank Neese              #
                  # Max Planck Institute for Chemical Energy Conversion #
                  #                  D-45470 Muelheim/Ruhr              #
                  #                       Germany                       #
                  #                                                     #
                  #                  All rights reserved                #
                  #                        -***-                        #
                  #######################################################


                         Program Version 3.0.3 - RELEASE   -


 With contributions from (in alphabetic order):
   Ute Becker             : Parallelization
   Dmytro Bykov           : SCF Hessian
   Dmitry Ganyushin       : Spin-Orbit,Spin-Spin,Magnetic field MRCI
   Andreas Hansen         : Spin unrestricted coupled pair/coupled cluster methods
   Dimitrios Liakos       : Extrapolation schemes; parallel MDCI
   Robert Izsak           : Overlap fitted RIJCOSX, COSX-SCS-MP3
   Christian Kollmar      : KDIIS, OOCD, Brueckner-CCSD(T), CCSD density
   Simone Kossmann        : Meta GGA functionals, TD-DFT gradient, OOMP2, MP2 Hessian
   Taras Petrenko         : DFT Hessian,TD-DFT gradient, ASA and ECA modules, normal mode analysis, Resonance Raman, ABS, FL, XAS/XES, NRVS
   Christoph Reimann      : Effective Core Potentials
   Michael Roemelt        : Restricted open shell CIS
   Christoph Riplinger    : Improved optimizer, TS searches, QM/MM, DLPNO-CCSD
   Barbara Sandhoefer     : DKH picture change effects
   Igor Schapiro          : Molecular dynamics
   Kantharuban Sivalingam : CASSCF convergence, NEVPT2
   Boris Wezisla          : Elementary symmetry handling
   Frank Wennmohs         : Technical directorship


 We gratefully acknowledge several colleagues who have allowed us to
 interface, adapt or use parts of their codes:
   Stefan Grimme, W. Hujo, H. Kruse, T. Risthaus : VdW corrections, initial TS optimization,
                                                   DFT functionals, gCP
   Ed Valeev                                     : LibInt (2-el integral package), F12 methods
   Garnet Chan, S. Sharma, R. Olivares           : DMRG
   Ulf Ekstrom                                   : XCFun DFT Library
   Mihaly Kallay                                 : mrcc  (arbitrary order and MRCC methods)
   Andreas Klamt, Michael Diedenhofen            : otool_cosmo (COSMO solvation model)
   Frank Weinhold                                : gennbo (NPA and NBO analysis)
   Christopher J. Cramer and Donald G. Truhlar   : smd solvation model


 Your calculation uses the libint2 library for the computation of 2-el integrals
 For citations please refer to: http://libint.valeyev.net

 This ORCA versions uses:
   CBLAS   interface :  Fast vector & matrix operations
   LAPACKE interface :  Fast linear algebra routines
   SCALAPACK package :  Parallel linear algebra routines


Your calculation utilizes the basis: Ahlrichs-TZV
Cite in your paper:
H - Kr: A. Schaefer, H. Horn and R. Ahlrichs, J. Chem. Phys. 97, 2571 (1992).

The def2-TZV basis will be loaded
Cite in your paper:
 	F. Weigend, R. Ahlrichs, Phys. Chem. Chem. Phys. 2005, 7, 3297.

================================================================================
                                        WARNINGS
                       Please study these warnings very carefully!
================================================================================
Now building the actual basis set


INFO   : the flag for use of LIBINT has been found!

================================================================================
                                       INPUT FILE
================================================================================
NAME = dsgdb9nsd_038471.inp
|  1> ! RI-MP2 RIJK def2-TZVP def2-TZVP/C def2-TZVP/JK TIGHTSCF
|  2> % maxcore 2000
|  3> % mp2 density relaxed end
|  4> *xyz 0 1
|  5>  C       -0.0469686348     1.5742177923     0.1785541722 
|  6>  C        1.4711160771     1.2933087769     0.0812052617 
|  7>  C        1.2085323937     0.0428409338     1.0051549231 
|  8>  C        0.0829384414     0.0302645960    -0.0755797002 
|  9>  C       -0.9728633039    -0.8506019600    -0.7327722491 
| 10>  C       -0.8134756466    -0.4469675222    -2.2111122814 
| 11>  O       -0.8742606893     0.9624895346    -2.4559032179 
| 12>  C        0.4232771787     0.3599148569    -2.4310610245 
| 13>  C        1.1831259484     0.3232468121    -1.1184609084 
| 14>  H       -0.4125530687     1.8559569702     1.1708750790 
| 15>  H       -0.5014609357     2.1723291322    -0.6049559985 
| 16>  H        2.2892386957     2.0073003361     0.1850258409 
| 17>  H        1.9419178313    -0.7677052377     0.9647154491 
| 18>  H        0.9110905784     0.2687851299     2.0326711166 
| 19>  H       -0.7544039220    -1.9202030369    -0.6279151393 
| 20>  H       -1.9894912005    -0.6743872940    -0.3679241785 
| 21>  H       -1.2560546711    -1.0629338096    -2.9913417887 
| 22>  H        0.9430389232     0.3601249167    -3.3867351669 
| 23>  H        1.9405035748    -0.4661080175    -1.2216501695 
| 24> *
| 25> 
| 26>                          ****END OF INPUT****
================================================================================

                       ****************************
                       * Single Point Calculation *
                       ****************************

---------------------------------
CARTESIAN COORDINATES (ANGSTROEM)
---------------------------------
  C     -0.046969    1.574218    0.178554
  C      1.471116    1.293309    0.081205
  C      1.208532    0.042841    1.005155
  C      0.082938    0.030265   -0.075580
  C     -0.972863   -0.850602   -0.732772
  C     -0.813476   -0.446968   -2.211112
  O     -0.874261    0.962490   -2.455903
  C      0.423277    0.359915   -2.431061
  C      1.183126    0.323247   -1.118461
  H     -0.412553    1.855957    1.170875
  H     -0.501461    2.172329   -0.604956
  H      2.289239    2.007300    0.185026
  H      1.941918   -0.767705    0.964715
  H      0.911091    0.268785    2.032671
  H     -0.754404   -1.920203   -0.627915
  H     -1.989491   -0.674387   -0.367924
  H     -1.256055   -1.062934   -2.991342
  H      0.943039    0.360125   -3.386735
  H      1.940504   -0.466108   -1.221650

----------------------------
CARTESIAN COORDINATES (A.U.)
----------------------------
  NO LB      ZA    FRAG    MASS        X           Y           Z
   0 C     6.0000    0    12.011         -0.088757856656163          2.974840502593127          0.337418485527015
   1 C     6.0000    0    12.011          2.780006496927581          2.443999394937660          0.153455705246405
   2 C     6.0000    0    12.011          2.283795248065297          0.080957632203450          1.899467526821676
   3 C     6.0000    0    12.011          0.156730940220276          0.057191797993769         -0.142824934661873
   4 C     6.0000    0    12.011         -1.838445210112803         -1.607404753376639         -1.384738869336523
   5 C     6.0000    0    12.011         -1.537246188688508         -0.844646207715367         -4.178396663195821
   6 O     8.0000    0    15.999         -1.652113272430218          1.818841627159323         -4.640984493246928
   7 C     6.0000    0    12.011          0.799877946481846          0.680140511070458         -4.594039551155022
   8 C     6.0000    0    12.011          2.235784024411847          0.610847948532102         -2.113584808372783
   9 H     1.0000    0     1.008         -0.779612315551800          3.507250390020246          2.212633236343410
  10 H     1.0000    0     1.008         -0.947623835332895          4.105107132596813         -1.143201160237876
  11 H     1.0000    0     1.008          4.326034190048089          3.793247903757083          0.349648166999486
  12 H     1.0000    0     1.008          3.669692875735290         -1.450752650829916          1.823047995961847
  13 H     1.0000    0     1.008          1.721711676371909          0.507930284381448          3.841191730705912
  14 H     1.0000    0     1.008         -1.425616806936089         -3.628657861264883         -1.186587648620013
  15 H     1.0000    0     1.008         -3.759593514791215         -1.274407293856235         -0.695275935412957
  16 H     1.0000    0     1.008         -2.373599337611533         -2.008653798629596         -5.652816753597132
  17 H     1.0000    0     1.008          1.782085298475996          0.680537466564204         -6.400001953561082
  18 H     1.0000    0     1.008          3.667020318267172         -0.880816501899974         -2.308584251813476

--------------------------------
INTERNAL COORDINATES (ANGSTROEM)
--------------------------------
 C      0   0   0   0.000000     0.000     0.000
 C      1   0   0   1.546922     0.000     0.000
 C      2   1   0   1.576802    86.773     0.000
 C      3   2   1   1.560483    73.781    44.945
 C      4   3   2   1.523990   143.420   162.372
 C      5   4   3   1.540719   100.992   222.011
 O      6   5   4   1.431847   114.679   307.697
 C      7   6   5   1.430845    62.870   101.211
 C      8   7   6   1.517114   118.645   268.119
 H      1   2   3   1.094408   115.571    66.544
 H      1   2   3   1.085444   117.746   202.487
 H      2   1   3   1.090820   127.675   225.508
 H      3   2   1   1.093835   117.022   157.286
 H      3   2   1   1.093303   115.602   292.140
 H      5   4   3   1.096707   112.612   338.201
 H      5   4   3   1.094394   113.999   101.792
 H      6   5   4   1.088140   119.843   165.215
 H      8   7   6   1.087872   114.704   113.367
 H      9   8   7   1.098795   106.340   159.946

---------------------------
INTERNAL COORDINATES (A.U.)
---------------------------
 C      0   0   0   0.000000     0.000     0.000
 C      1   0   0   2.923259     0.000     0.000
 C      2   1   0   2.979723    86.773     0.000
 C      3   2   1   2.948886    73.781    44.945
 C      4   3   2   2.879924   143.420   162.372
 C      5   4   3   2.911537   100.992   222.011
 O      6   5   4   2.705799   114.679   307.697
 C      7   6   5   2.703906    62.870   101.211
 C      8   7   6   2.866929   118.645   268.119
 H      1   2   3   2.068132   115.571    66.544
 H      1   2   3   2.051192   117.746   202.487
 H      2   1   3   2.061350   127.675   225.508
 H      3   2   1   2.067048   117.022   157.286
 H      3   2   1   2.066044   115.602   292.140
 H      5   4   3   2.072476   112.612   338.201
 H      5   4   3   2.068105   113.999   101.792
 H      6   5   4   2.056287   119.843   165.215
 H      8   7   6   2.055780   114.704   113.367
 H      9   8   7   2.076421   106.340   159.946

---------------------
BASIS SET INFORMATION
---------------------
There are 3 groups of distinct atoms

 Group   1 Type C   : 11s6p2d1f contracted to 5s3p2d1f pattern {62111/411/11/1}
 Group   2 Type O   : 11s6p2d1f contracted to 5s3p2d1f pattern {62111/411/11/1}
 Group   3 Type H   : 5s1p contracted to 3s1p pattern {311/1}

Atom   0C    basis set group =>   1
Atom   1C    basis set group =>   1
Atom   2C    basis set group =>   1
Atom   3C    basis set group =>   1
Atom   4C    basis set group =>   1
Atom   5C    basis set group =>   1
Atom   6O    basis set group =>   2
Atom   7C    basis set group =>   1
Atom   8C    basis set group =>   1
Atom   9H    basis set group =>   3
Atom  10H    basis set group =>   3
Atom  11H    basis set group =>   3
Atom  12H    basis set group =>   3
Atom  13H    basis set group =>   3
Atom  14H    basis set group =>   3
Atom  15H    basis set group =>   3
Atom  16H    basis set group =>   3
Atom  17H    basis set group =>   3
Atom  18H    basis set group =>   3
-------------------------------
AUXILIARY BASIS SET INFORMATION
-------------------------------
There are 3 groups of distinct atoms

 Group   1 Type C   : 14s10p6d2f1g contracted to 10s8p5d1f1g pattern {5111111111/31111111/21111/2/1}
 Group   2 Type O   : 14s10p6d2f1g contracted to 10s8p4d2f1g pattern {5111111111/31111111/3111/11/1}
 Group   3 Type H   : 4s2p2d contracted to 2s2p2d pattern {31/11/11}

Atom   0C    basis set group =>   1
Atom   1C    basis set group =>   1
Atom   2C    basis set group =>   1
Atom   3C    basis set group =>   1
Atom   4C    basis set group =>   1
Atom   5C    basis set group =>   1
Atom   6O    basis set group =>   2
Atom   7C    basis set group =>   1
Atom   8C    basis set group =>   1
Atom   9H    basis set group =>   3
Atom  10H    basis set group =>   3
Atom  11H    basis set group =>   3
Atom  12H    basis set group =>   3
Atom  13H    basis set group =>   3
Atom  14H    basis set group =>   3
Atom  15H    basis set group =>   3
Atom  16H    basis set group =>   3
Atom  17H    basis set group =>   3
Atom  18H    basis set group =>   3
------------------------------------------------------------------------------
                           ORCA GTO INTEGRAL CALCULATION
                           -- RI-GTO INTEGRALS CHOSEN --
------------------------------------------------------------------------------

                         BASIS SET STATISTICS AND STARTUP INFO

Gaussian basis set:
 # of primitive gaussian shells          ...  240
 # of primitive gaussian functions       ...  494
 # of contracted shells                  ...  139
 # of contracted basis functions         ...  339
 Highest angular momentum                ...    3
 Maximum contraction depth               ...    6
Auxiliary gaussian basis set:
 # of primitive gaussian shells          ...  377
 # of primitive gaussian functions       ... 1073
 # of contracted shells                  ...  285
 # of contracted aux-basis functions     ...  857
 Highest angular momentum                ...    4
 Maximum contraction depth               ...    5
Ratio of auxiliary to basis functions    ...  2.53
Integral package used                  ... LIBINT
 One Electron integrals                  ... done
 Ordering auxiliary basis shells         ... done
 Integral threshhold             Thresh  ...  2.500e-11
 Primitive cut-off               TCut    ...  2.500e-12
 Pre-screening matrix                    ... done
 Shell pair data                         ... 
 Ordering of the shell pairs             ... done (   0.002 sec) 9241 of 9730 pairs
 Determination of significant pairs      ... done (   0.000 sec)
 Creation of shell pair data             ... done (   0.002 sec)
 Storage of shell pair data              ... done (   0.002 sec)
 Shell pair data done in (   0.006 sec)
 Computing two index integrals           ... done
 Cholesky decomposition of the V-matrix  ... done


Timings:
 Total evaluation time                   ...   0.405 sec (  0.007 min)
 One electron matrix time                ...   0.101 sec (  0.002 min) = 25.0%
 Schwartz matrix evaluation time         ...   0.215 sec (  0.004 min) = 52.9%
 Two index repulsion integral time       ...   0.022 sec (  0.000 min) =  5.4%
 Cholesky decomposition of V             ...   0.034 sec (  0.001 min) =  8.4%
 Three index repulsion integral time     ...   0.000 sec (  0.000 min) =  0.0%

-------------------------------------------------------------------------------
                                 ORCA SCF
-------------------------------------------------------------------------------

------------
SCF SETTINGS
------------
Hamiltonian:
 Ab initio Hamiltonian  Method          .... Hartree-Fock(GTOs)
 RI-approximation to the Coulomb term is turned on
   Number of auxiliary basis functions  .... 857
   RI-JK (J+K treated both via RI)      .... on


General Settings:
 Integral files         IntName         .... dsgdb9nsd_038471
 Hartree-Fock type      HFTyp           .... RHF
 Total Charge           Charge          ....    0
 Multiplicity           Mult            ....    1
 Number of Electrons    NEL             ....   66
 Basis Dimension        Dim             ....  339
 Nuclear Repulsion      ENuc            ....    466.0735872175 Eh

Convergence Acceleration:
 DIIS                   CNVDIIS         .... on
   Start iteration      DIISMaxIt       ....    12
   Startup error        DIISStart       ....  0.200000
   # of expansion vecs  DIISMaxEq       ....     5
   Bias factor          DIISBfac        ....   1.050
   Max. coefficient     DIISMaxC        ....  10.000
 Newton-Raphson         CNVNR           .... off
 SOSCF                  CNVSOSCF        .... on
   Start iteration      SOSCFMaxIt      ....   150
   Startup grad/error   SOSCFStart      ....  0.003300
 Level Shifting         CNVShift        .... on
   Level shift para.    LevelShift      ....    0.2500
   Turn off err/grad.   ShiftErr        ....    0.0010
 Zerner damping         CNVZerner       .... off
 Static damping         CNVDamp         .... on
   Fraction old density DampFac         ....    0.7000
   Max. Damping (<1)    DampMax         ....    0.9800
   Min. Damping (>=0)   DampMin         ....    0.0000
   Turn off err/grad.   DampErr         ....    0.1000
 Fernandez-Rico         CNVRico         .... off

SCF Procedure:
 Maximum # iterations   MaxIter         ....   125
 SCF integral mode      SCFMode         .... Direct
   Integral package                     .... LIBINT
 Reset frequeny         DirectResetFreq ....    20
 Integral Threshold     Thresh          ....  2.500e-11 Eh
 Primitive CutOff       TCut            ....  2.500e-12 Eh

Convergence Tolerance:
 Convergence Check Mode ConvCheckMode   .... Total+1el-Energy
 Energy Change          TolE            ....  1.000e-08 Eh
 1-El. energy change                    ....  1.000e-05 Eh
 Orbital Gradient       TolG            ....  1.000e-05
 Orbital Rotation angle TolX            ....  1.000e-05
 DIIS Error             TolErr          ....  5.000e-07


Diagonalization of the overlap matrix:
Smallest eigenvalue                        ... 2.415e-05
Time for diagonalization                   ...    0.033 sec
Threshold for overlap eigenvalues          ... 1.000e-08
Number of eigenvalues below threshold      ... 0
Time for construction of square roots      ...    0.017 sec
Total time needed                          ...    0.050 sec

-------------------
DFT GRID GENERATION
-------------------

General Integration Accuracy     IntAcc      ...  4.340
Radial Grid Type                 RadialGrid  ... Gauss-Chebyshev
Angular Grid (max. acc.)         AngularGrid ... Lebedev-110
Angular grid pruning method      GridPruning ... 3 (G Style)
Weight generation scheme         WeightScheme... Becke
Basis function cutoff            BFCut       ...    1.0000e-11
Integration weight cutoff        WCut        ...    1.0000e-14
Grids for H and He will be reduced by one unit

# of grid points (after initial pruning)     ...  22904 (   0.0 sec)
# of grid points (after weights+screening)   ...  20693 (   0.1 sec)
nearest neighbour list constructed           ...    0.0 sec
Grid point re-assignment to atoms done       ...    0.0 sec
Grid point division into batches done        ...    0.0 sec
Reduced shell lists constructed in    1.3 sec

Total number of grid points                  ...    20693
Total number of batches                      ...      332
Average number of points per batch           ...       62
Average number of grid points per atom       ...     1089
Average number of shells per batch           ...   100.03 (71.96%)
Average number of basis functions per batch  ...   254.49 (75.07%)
Average number of large shells per batch     ...    79.63 (79.61%)
Average number of large basis fcns per batch ...   200.21 (78.67%)
Average number of aux-shells per batch       ...   100.03 (35.10%)
Average number of aux functions per batch    ...   254.49 (  inf%)
Maximum spatial batch extension              ...  20.92, 20.82, 20.47 au
Average spatial batch extension              ...   3.58,  3.66,  3.52 au

Time for grid setup =    1.459 sec

------------------------------
INITIAL GUESS: MODEL POTENTIAL
------------------------------
Loading Hartree-Fock densities                     ... done
Calculating cut-offs                               ... done
Setting up the integral package                    ... done
Initializing the effective Hamiltonian             ... done
Starting the Coulomb interaction                   ... done (   0.8 sec)
Reading the grid                                   ... done
Mapping shells                                     ... done
Starting the XC term evaluation                    ... done (   0.8 sec)
Transforming the Hamiltonian                       ... done (   0.0 sec)
Diagonalizing the Hamiltonian                      ... done (   0.0 sec)
Back transforming the eigenvectors                 ... done (   0.0 sec)
Now organizing SCF variables                       ... done
                      ------------------
                      INITIAL GUESS DONE (   3.2 sec)
                      ------------------
--------------
SCF ITERATIONS
--------------
ITER       Energy         Delta-E        Max-DP      RMS-DP      [F,P]     Damp
  0   -383.2445204577   0.000000000000 0.05211772  0.00105532  0.2978478 0.7000
  1   -383.1577278385   0.086792619247 0.04116644  0.00101426  0.2483907 0.7000
                               ***Turning on DIIS***
  2   -383.1989766492  -0.041248810733 0.02999715  0.00071761  0.1806025 0.7000
  3   -384.2707961280  -1.071819478756 0.01981924  0.00044551  0.1262832 0.7000
  4   -383.5185592349   0.752236893043 0.05170757  0.00109902  0.0840646 0.0000
  5   -383.7375593358  -0.219000100832 0.01733107  0.00022334  0.0169290 0.0000
  6   -383.5390050734   0.198554262366 0.01041354  0.00011865  0.0083753 0.0000
  7   -383.5569580412  -0.017952967818 0.00186105  0.00005320  0.0053345 0.0000
                      *** Initiating the SOSCF procedure ***
                           *** Shutting down DIIS ***
                      *** Re-Reading the Fockian *** 
                      *** Removing any level shift *** 
ITER      Energy       Delta-E        Grad      Rot      Max-DP    RMS-DP
  8   -383.53677772   0.0201803224  0.000722  0.000722  0.001508  0.000040
  9   -383.59900570  -0.0622279850  0.000097  0.000173  0.000658  0.000014
 10   -383.59900682  -0.0000011197  0.000065  0.000064  0.000215  0.000005
 11   -383.59900721  -0.0000003906  0.000013  0.000018  0.000056  0.000001
 12   -383.59900723  -0.0000000123  0.000003  0.000009  0.000017  0.000000
                  ***Gradient check signals convergence***
              ***Rediagonalizing the Fockian in SOSCF/NRSCF***

               *****************************************************
               *                     SUCCESS                       *
               *           SCF CONVERGED AFTER  13 CYCLES          *
               *****************************************************


----------------
TOTAL SCF ENERGY
----------------

Total Energy       :         -383.59900723 Eh          -10438.25966 eV

Components:
Nuclear Repulsion  :          466.07358722 Eh           12682.50707 eV
Electronic Energy  :         -849.67259445 Eh          -23120.76673 eV

One Electron Energy:        -1445.18925858 Eh          -39325.59900 eV
Two Electron Energy:          595.51666414 Eh           16204.83227 eV

Virial components:
Potential Energy   :         -766.65889716 Eh          -20861.84919 eV
Kinetic Energy     :          383.05988993 Eh           10423.58953 eV
Virial Ratio       :            2.00140740


---------------
SCF CONVERGENCE
---------------

  Last Energy change         ...   -1.4578e-09  Tolerance :   1.0000e-08
  Last MAX-Density change    ...    7.0118e-06  Tolerance :   1.0000e-07
  Last RMS-Density change    ...    1.5495e-07  Tolerance :   5.0000e-09
  Last Orbital Gradient      ...    1.6986e-06  Tolerance :   1.0000e-05
  Last Orbital Rotation      ...    1.1053e-06  Tolerance :   1.0000e-05

             **** THE GBW FILE WAS UPDATED (dsgdb9nsd_038471.gbw) ****
             **** DENSITY FILE WAS UPDATED (dsgdb9nsd_038471.scfp.tmp) ****
             **** ENERGY FILE WAS UPDATED (dsgdb9nsd_038471.en.tmp) ****
----------------
ORBITAL ENERGIES
----------------

  NO   OCC          E(Eh)            E(eV) 
   0   2.0000     -20.564160      -559.5793 
   1   2.0000     -11.285728      -307.1003 
   2   2.0000     -11.284978      -307.0799 
   3   2.0000     -11.248609      -306.0902 
   4   2.0000     -11.243539      -305.9522 
   5   2.0000     -11.235544      -305.7347 
   6   2.0000     -11.233382      -305.6759 
   7   2.0000     -11.231384      -305.6215 
   8   2.0000     -11.216243      -305.2095 
   9   2.0000      -1.410983       -38.3948 
  10   2.0000      -1.212278       -32.9878 
  11   2.0000      -1.032968       -28.1085 
  12   2.0000      -0.964790       -26.2533 
  13   2.0000      -0.902265       -24.5519 
  14   2.0000      -0.862186       -23.4613 
  15   2.0000      -0.829837       -22.5810 
  16   2.0000      -0.781442       -21.2641 
  17   2.0000      -0.719970       -19.5914 
  18   2.0000      -0.702993       -19.1294 
  19   2.0000      -0.634190       -17.2572 
  20   2.0000      -0.617983       -16.8162 
  21   2.0000      -0.611272       -16.6336 
  22   2.0000      -0.599331       -16.3086 
  23   2.0000      -0.556957       -15.1556 
  24   2.0000      -0.529046       -14.3961 
  25   2.0000      -0.501698       -13.6519 
  26   2.0000      -0.492264       -13.3952 
  27   2.0000      -0.471021       -12.8171 
  28   2.0000      -0.448298       -12.1988 
  29   2.0000      -0.438566       -11.9340 
  30   2.0000      -0.424241       -11.5442 
  31   2.0000      -0.402295       -10.9470 
  32   2.0000      -0.387462       -10.5434 
  33   0.0000       0.145692         3.9645 
  34   0.0000       0.159511         4.3405 
  35   0.0000       0.164899         4.4871 
  36   0.0000       0.180798         4.9198 
  37   0.0000       0.190734         5.1901 
  38   0.0000       0.193481         5.2649 
  39   0.0000       0.207596         5.6490 
  40   0.0000       0.214930         5.8485 
  41   0.0000       0.217304         5.9131 
  42   0.0000       0.243009         6.6126 
  43   0.0000       0.243341         6.6217 
  44   0.0000       0.247883         6.7452 
  45   0.0000       0.261793         7.1238 
  46   0.0000       0.270033         7.3480 
  47   0.0000       0.272173         7.4062 
  48   0.0000       0.285406         7.7663 
  49   0.0000       0.305443         8.3115 
  50   0.0000       0.317921         8.6511 
  51   0.0000       0.322592         8.7782 
  52   0.0000       0.328629         8.9424 
  53   0.0000       0.342328         9.3152 
  54   0.0000       0.354310         9.6413 
  55   0.0000       0.371705        10.1146 
  56   0.0000       0.398877        10.8540 
  57   0.0000       0.417828        11.3697 
  58   0.0000       0.432905        11.7799 
  59   0.0000       0.446845        12.1593 
  60   0.0000       0.455725        12.4009 
  61   0.0000       0.473797        12.8927 
  62   0.0000       0.477204        12.9854 
  63   0.0000       0.509071        13.8525 
  64   0.0000       0.516490        14.0544 
  65   0.0000       0.535719        14.5777 
  66   0.0000       0.544993        14.8300 
  67   0.0000       0.546688        14.8761 
  68   0.0000       0.550476        14.9792 
  69   0.0000       0.559493        15.2246 
  70   0.0000       0.562529        15.3072 
  71   0.0000       0.569575        15.4989 
  72   0.0000       0.577317        15.7096 
  73   0.0000       0.581153        15.8140 
  74   0.0000       0.587445        15.9852 
  75   0.0000       0.592872        16.1329 
  76   0.0000       0.597866        16.2688 
  77   0.0000       0.606249        16.4969 
  78   0.0000       0.617975        16.8159 
  79   0.0000       0.624333        16.9890 
  80   0.0000       0.632639        17.2150 
  81   0.0000       0.640252        17.4221 
  82   0.0000       0.652978        17.7684 
  83   0.0000       0.658668        17.9233 
  84   0.0000       0.669333        18.2135 
  85   0.0000       0.677243        18.4287 
  86   0.0000       0.685963        18.6660 
  87   0.0000       0.697196        18.9717 
  88   0.0000       0.708045        19.2669 
  89   0.0000       0.721625        19.6364 
  90   0.0000       0.754653        20.5351 
  91   0.0000       0.769491        20.9389 
  92   0.0000       0.805200        21.9106 
  93   0.0000       0.830053        22.5869 
  94   0.0000       0.853322        23.2201 
  95   0.0000       0.859402        23.3855 
  96   0.0000       0.889104        24.1937 
  97   0.0000       0.902936        24.5701 
  98   0.0000       0.939861        25.5749 
  99   0.0000       0.959674        26.1141 
 100   0.0000       0.981219        26.7003 
 101   0.0000       1.015242        27.6261 
 102   0.0000       1.048057        28.5191 
 103   0.0000       1.076173        29.2841 
 104   0.0000       1.111937        30.2573 
 105   0.0000       1.130020        30.7494 
 106   0.0000       1.132165        30.8078 
 107   0.0000       1.141258        31.0552 
 108   0.0000       1.160409        31.5763 
 109   0.0000       1.169459        31.8226 
 110   0.0000       1.179948        32.1080 
 111   0.0000       1.191890        32.4330 
 112   0.0000       1.216160        33.0934 
 113   0.0000       1.225615        33.3507 
 114   0.0000       1.230578        33.4857 
 115   0.0000       1.253149        34.0999 
 116   0.0000       1.269769        34.5522 
 117   0.0000       1.292832        35.1797 
 118   0.0000       1.301431        35.4137 
 119   0.0000       1.323430        36.0124 
 120   0.0000       1.345020        36.5998 
 121   0.0000       1.354571        36.8597 
 122   0.0000       1.366867        37.1943 
 123   0.0000       1.373205        37.3668 
 124   0.0000       1.380261        37.5588 
 125   0.0000       1.399152        38.0729 
 126   0.0000       1.412128        38.4260 
 127   0.0000       1.425808        38.7982 
 128   0.0000       1.452777        39.5321 
 129   0.0000       1.453476        39.5511 
 130   0.0000       1.458980        39.7009 
 131   0.0000       1.487967        40.4896 
 132   0.0000       1.509821        41.0843 
 133   0.0000       1.542679        41.9784 
 134   0.0000       1.567602        42.6566 
 135   0.0000       1.597614        43.4733 
 136   0.0000       1.615951        43.9723 
 137   0.0000       1.639034        44.6004 
 138   0.0000       1.649471        44.8844 
 139   0.0000       1.670355        45.4527 
 140   0.0000       1.685986        45.8780 
 141   0.0000       1.758077        47.8397 
 142   0.0000       1.788382        48.6643 
 143   0.0000       1.799427        48.9649 
 144   0.0000       1.816181        49.4208 
 145   0.0000       1.873180        50.9718 
 146   0.0000       1.878766        51.1238 
 147   0.0000       1.901204        51.7344 
 148   0.0000       1.907400        51.9030 
 149   0.0000       1.917883        52.1882 
 150   0.0000       1.922378        52.3106 
 151   0.0000       1.936560        52.6965 
 152   0.0000       1.971797        53.6553 
 153   0.0000       1.977907        53.8216 
 154   0.0000       2.012650        54.7670 
 155   0.0000       2.038684        55.4754 
 156   0.0000       2.061607        56.0992 
 157   0.0000       2.084775        56.7296 
 158   0.0000       2.109000        57.3888 
 159   0.0000       2.120407        57.6992 
 160   0.0000       2.155070        58.6424 
 161   0.0000       2.168539        59.0090 
 162   0.0000       2.182798        59.3969 
 163   0.0000       2.201988        59.9192 
 164   0.0000       2.230583        60.6973 
 165   0.0000       2.241651        60.9984 
 166   0.0000       2.276116        61.9363 
 167   0.0000       2.302186        62.6457 
 168   0.0000       2.319140        63.1070 
 169   0.0000       2.327638        63.3382 
 170   0.0000       2.342501        63.7427 
 171   0.0000       2.369058        64.4654 
 172   0.0000       2.384982        64.8987 
 173   0.0000       2.400685        65.3260 
 174   0.0000       2.429076        66.0985 
 175   0.0000       2.447175        66.5910 
 176   0.0000       2.489453        67.7415 
 177   0.0000       2.499574        68.0169 
 178   0.0000       2.528840        68.8132 
 179   0.0000       2.554758        69.5185 
 180   0.0000       2.570466        69.9459 
 181   0.0000       2.577646        70.1413 
 182   0.0000       2.597271        70.6753 
 183   0.0000       2.634632        71.6920 
 184   0.0000       2.642573        71.9081 
 185   0.0000       2.682933        73.0063 
 186   0.0000       2.686580        73.1056 
 187   0.0000       2.700211        73.4765 
 188   0.0000       2.737975        74.5041 
 189   0.0000       2.754923        74.9653 
 190   0.0000       2.764782        75.2335 
 191   0.0000       2.783664        75.7473 
 192   0.0000       2.813281        76.5533 
 193   0.0000       2.825832        76.8948 
 194   0.0000       2.839859        77.2765 
 195   0.0000       2.859727        77.8171 
 196   0.0000       2.867174        78.0198 
 197   0.0000       2.892570        78.7108 
 198   0.0000       2.907720        79.1231 
 199   0.0000       2.928782        79.6962 
 200   0.0000       2.936886        79.9167 
 201   0.0000       2.961550        80.5879 
 202   0.0000       2.974987        80.9535 
 203   0.0000       2.980317        81.0986 
 204   0.0000       2.990292        81.3700 
 205   0.0000       3.013558        82.0031 
 206   0.0000       3.015364        82.0522 
 207   0.0000       3.040129        82.7261 
 208   0.0000       3.049461        82.9801 
 209   0.0000       3.063103        83.3513 
 210   0.0000       3.072126        83.5968 
 211   0.0000       3.081749        83.8586 
 212   0.0000       3.103048        84.4382 
 213   0.0000       3.120743        84.9197 
 214   0.0000       3.131110        85.2018 
 215   0.0000       3.154225        85.8308 
 216   0.0000       3.166047        86.1525 
 217   0.0000       3.184797        86.6627 
 218   0.0000       3.215270        87.4920 
 219   0.0000       3.261639        88.7537 
 220   0.0000       3.283317        89.3436 
 221   0.0000       3.287500        89.4574 
 222   0.0000       3.294401        89.6452 
 223   0.0000       3.315328        90.2147 
 224   0.0000       3.325392        90.4885 
 225   0.0000       3.351478        91.1983 
 226   0.0000       3.359608        91.4196 
 227   0.0000       3.372181        91.7617 
 228   0.0000       3.403871        92.6240 
 229   0.0000       3.410334        92.7999 
 230   0.0000       3.435216        93.4770 
 231   0.0000       3.452468        93.9464 
 232   0.0000       3.474647        94.5499 
 233   0.0000       3.500889        95.2640 
 234   0.0000       3.510175        95.5167 
 235   0.0000       3.514826        95.6433 
 236   0.0000       3.529951        96.0549 
 237   0.0000       3.537104        96.2495 
 238   0.0000       3.557394        96.8016 
 239   0.0000       3.569814        97.1396 
 240   0.0000       3.590651        97.7066 
 241   0.0000       3.601817        98.0104 
 242   0.0000       3.613363        98.3246 
 243   0.0000       3.636827        98.9631 
 244   0.0000       3.646689        99.2315 
 245   0.0000       3.654853        99.4536 
 246   0.0000       3.680579       100.1536 
 247   0.0000       3.693924       100.5168 
 248   0.0000       3.703730       100.7836 
 249   0.0000       3.740660       101.7885 
 250   0.0000       3.751785       102.0913 
 251   0.0000       3.779679       102.8503 
 252   0.0000       3.797213       103.3274 
 253   0.0000       3.822510       104.0158 
 254   0.0000       3.850501       104.7775 
 255   0.0000       3.870658       105.3260 
 256   0.0000       3.882413       105.6458 
 257   0.0000       3.903715       106.2255 
 258   0.0000       3.920278       106.6762 
 259   0.0000       3.939151       107.1898 
 260   0.0000       3.990883       108.5975 
 261   0.0000       3.992047       108.6291 
 262   0.0000       4.002708       108.9192 
 263   0.0000       4.047983       110.1512 
 264   0.0000       4.081241       111.0562 
 265   0.0000       4.089205       111.2729 
 266   0.0000       4.094054       111.4049 
 267   0.0000       4.122079       112.1675 
 268   0.0000       4.142760       112.7302 
 269   0.0000       4.168651       113.4348 
 270   0.0000       4.177109       113.6649 
 271   0.0000       4.210059       114.5615 
 272   0.0000       4.212810       114.6364 
 273   0.0000       4.275770       116.3496 
 274   0.0000       4.288593       116.6985 
 275   0.0000       4.310300       117.2892 
 276   0.0000       4.324743       117.6822 
 277   0.0000       4.341021       118.1252 
 278   0.0000       4.374511       119.0365 
 279   0.0000       4.406098       119.8960 
 280   0.0000       4.421648       120.3191 
 281   0.0000       4.434714       120.6747 
 282   0.0000       4.476246       121.8049 
 283   0.0000       4.490889       122.2033 
 284   0.0000       4.502867       122.5292 
 285   0.0000       4.526677       123.1771 
 286   0.0000       4.536205       123.4364 
 287   0.0000       4.581711       124.6747 
 288   0.0000       4.596257       125.0705 
 289   0.0000       4.637753       126.1997 
 290   0.0000       4.662425       126.8710 
 291   0.0000       4.683522       127.4451 
 292   0.0000       4.713839       128.2701 
 293   0.0000       4.739715       128.9742 
 294   0.0000       4.750878       129.2780 
 295   0.0000       4.811115       130.9171 
 296   0.0000       4.829917       131.4287 
 297   0.0000       4.850148       131.9792 
 298   0.0000       4.892364       133.1280 
 299   0.0000       4.923380       133.9720 
 300   0.0000       4.954215       134.8111 
 301   0.0000       4.981297       135.5480 
 302   0.0000       4.993723       135.8861 
 303   0.0000       5.063575       137.7869 
 304   0.0000       5.110925       139.0753 
 305   0.0000       5.176005       140.8463 
 306   0.0000       5.192173       141.2862 
 307   0.0000       5.218534       142.0035 
 308   0.0000       5.269154       143.3810 
 309   0.0000       5.302091       144.2772 
 310   0.0000       5.334590       145.1616 
 311   0.0000       5.361079       145.8824 
 312   0.0000       5.419908       147.4832 
 313   0.0000       5.461386       148.6119 
 314   0.0000       5.482911       149.1976 
 315   0.0000       5.534327       150.5967 
 316   0.0000       5.582850       151.9171 
 317   0.0000       5.774768       157.1394 
 318   0.0000       5.788182       157.5044 
 319   0.0000       5.968672       162.4158 
 320   0.0000       6.266744       170.5268 
 321   0.0000       6.273306       170.7053 
 322   0.0000       6.340561       172.5354 
 323   0.0000       6.498769       176.8405 
 324   0.0000       6.581529       179.0925 
 325   0.0000       7.190725       195.6696 
 326   0.0000       7.255136       197.4223 
 327   0.0000       7.430453       202.1929 
 328   0.0000       7.539162       205.1510 
 329   0.0000       7.782953       211.7849 
 330   0.0000      23.403245       636.8347 
 331   0.0000      23.459787       638.3733 
 332   0.0000      23.577297       641.5709 
 333   0.0000      23.608749       642.4267 
 334   0.0000      23.687105       644.5589 
 335   0.0000      23.837167       648.6423 
 336   0.0000      23.919207       650.8747 
 337   0.0000      24.461582       665.6335 
 338   0.0000      45.672878      1242.8222 

                    ********************************
                    * MULLIKEN POPULATION ANALYSIS *
                    ********************************

-----------------------
MULLIKEN ATOMIC CHARGES
-----------------------
   0 C :   -0.229432
   1 C :   -0.050198
   2 C :   -0.151972
   3 C :    0.031885
   4 C :   -0.167383
   5 C :    0.066093
   6 O :   -0.447961
   7 C :    0.069318
   8 C :   -0.154851
   9 H :    0.085987
  10 H :    0.135764
  11 H :    0.126897
  12 H :    0.092500
  13 H :    0.098419
  14 H :    0.094204
  15 H :    0.103332
  16 H :    0.109779
  17 H :    0.117745
  18 H :    0.069875
Sum of atomic charges:    0.0000000

--------------------------------
MULLIKEN REDUCED ORBITAL CHARGES
--------------------------------
  0 C s       :     3.234062  s :     3.234062
      pz      :     1.041166  p :     2.896646
      px      :     0.927317
      py      :     0.928162
      dz2     :     0.016132  d :     0.091390
      dxz     :     0.017858
      dyz     :     0.019945
      dx2y2   :     0.026871
      dxy     :     0.010585
      f0      :     0.001011  f :     0.007334
      f+1     :     0.000994
      f-1     :     0.001029
      f+2     :     0.000977
      f-2     :     0.000666
      f+3     :     0.001276
      f-3     :     0.001380
  1 C s       :     3.120490  s :     3.120490
      pz      :     0.900021  p :     2.801706
      px      :     0.969193
      py      :     0.932492
      dz2     :     0.022367  d :     0.117449
      dxz     :     0.015608
      dyz     :     0.027986
      dx2y2   :     0.023854
      dxy     :     0.027633
      f0      :     0.001282  f :     0.010552
      f+1     :     0.000965
      f-1     :     0.001652
      f+2     :     0.001068
      f-2     :     0.001585
      f+3     :     0.002107
      f-3     :     0.001892
  2 C s       :     3.207904  s :     3.207904
      pz      :     0.933466  p :     2.846839
      px      :     0.940276
      py      :     0.973097
      dz2     :     0.026840  d :     0.090060
      dxz     :     0.014443
      dyz     :     0.012137
      dx2y2   :     0.013662
      dxy     :     0.022977
      f0      :     0.001335  f :     0.007169
      f+1     :     0.001270
      f-1     :     0.001019
      f+2     :     0.001021
      f-2     :     0.000869
      f+3     :     0.000902
      f-3     :     0.000754
  3 C s       :     3.135047  s :     3.135047
      pz      :     0.908617  p :     2.666642
      px      :     0.862143
      py      :     0.895882
      dz2     :     0.022128  d :     0.153482
      dxz     :     0.043360
      dyz     :     0.020173
      dx2y2   :     0.039590
      dxy     :     0.028230
      f0      :     0.001509  f :     0.012944
      f+1     :     0.002144
      f-1     :     0.000915
      f+2     :     0.001882
      f-2     :     0.002299
      f+3     :     0.002012
      f-3     :     0.002182
  4 C s       :     3.135114  s :     3.135114
      pz      :     0.919535  p :     2.928805
      px      :     1.001607
      py      :     1.007663
      dz2     :     0.029553  d :     0.097063
      dxz     :     0.020526
      dyz     :     0.012451
      dx2y2   :     0.027030
      dxy     :     0.007502
      f0      :     0.001314  f :     0.006401
      f+1     :     0.001062
      f-1     :     0.001154
      f+2     :     0.000609
      f-2     :     0.000547
      f+3     :     0.000798
      f-3     :     0.000917
  5 C s       :     3.175177  s :     3.175177
      pz      :     0.941099  p :     2.587377
      px      :     0.966396
      py      :     0.679881
      dz2     :     0.030394  d :     0.156531
      dxz     :     0.018570
      dyz     :     0.047450
      dx2y2   :     0.030414
      dxy     :     0.029704
      f0      :     0.002346  f :     0.014823
      f+1     :     0.001300
      f-1     :     0.002439
      f+2     :     0.002157
      f-2     :     0.001300
      f+3     :     0.002862
      f-3     :     0.002419
  6 O s       :     3.862446  s :     3.862446
      pz      :     1.859332  p :     4.538730
      px      :     1.341858
      py      :     1.337540
      dz2     :     0.006656  d :     0.044546
      dxz     :     0.003125
      dyz     :     0.005592
      dx2y2   :     0.017375
      dxy     :     0.011799
      f0      :     0.000259  f :     0.002239
      f+1     :     0.000307
      f-1     :     0.000392
      f+2     :     0.000198
      f-2     :     0.000107
      f+3     :     0.000549
      f-3     :     0.000426
  7 C s       :     3.149312  s :     3.149312
      pz      :     0.962944  p :     2.604703
      px      :     0.735058
      py      :     0.906701
      dz2     :     0.031346  d :     0.161986
      dxz     :     0.051969
      dyz     :     0.015676
      dx2y2   :     0.023725
      dxy     :     0.039269
      f0      :     0.002481  f :     0.014682
      f+1     :     0.002604
      f-1     :     0.000641
      f+2     :     0.001562
      f-2     :     0.002007
      f+3     :     0.002904
      f-3     :     0.002483
  8 C s       :     3.205279  s :     3.205279
      pz      :     0.870104  p :     2.819658
      px      :     0.971352
      py      :     0.978203
      dz2     :     0.024188  d :     0.120417
      dxz     :     0.034880
      dyz     :     0.025424
      dx2y2   :     0.011169
      dxy     :     0.024756
      f0      :     0.001488  f :     0.009497
      f+1     :     0.002128
      f-1     :     0.001338
      f+2     :     0.001529
      f-2     :     0.001594
      f+3     :     0.000703
      f-3     :     0.000717
  9 H s       :     0.891885  s :     0.891885
      pz      :     0.012548  p :     0.022128
      px      :     0.005095
      py      :     0.004485
 10 H s       :     0.840587  s :     0.840587
      pz      :     0.010422  p :     0.023649
      px      :     0.006100
      py      :     0.007127
 11 H s       :     0.851148  s :     0.851148
      pz      :     0.003382  p :     0.021956
      px      :     0.010004
      py      :     0.008570
 12 H s       :     0.885230  s :     0.885230
      pz      :     0.003222  p :     0.022270
      px      :     0.008944
      py      :     0.010104
 13 H s       :     0.879205  s :     0.879205
      pz      :     0.014163  p :     0.022377
      px      :     0.004287
      py      :     0.003926
 14 H s       :     0.883664  s :     0.883664
      pz      :     0.003772  p :     0.022132
      px      :     0.003874
      py      :     0.014486
 15 H s       :     0.874372  s :     0.874372
      pz      :     0.005007  p :     0.022295
      px      :     0.013551
      py      :     0.003738
 16 H s       :     0.867395  s :     0.867395
      pz      :     0.010095  p :     0.022825
      px      :     0.005985
      py      :     0.006745
 17 H s       :     0.859462  s :     0.859462
      pz      :     0.013415  p :     0.022793
      px      :     0.005742
      py      :     0.003635
 18 H s       :     0.907028  s :     0.907028
      pz      :     0.003680  p :     0.023097
      px      :     0.009562
      py      :     0.009855


                     *******************************
                     * LOEWDIN POPULATION ANALYSIS *
                     *******************************

----------------------
LOEWDIN ATOMIC CHARGES
----------------------
   0 C :   -0.149269
   1 C :   -0.146933
   2 C :   -0.153655
   3 C :   -0.173029
   4 C :   -0.180948
   5 C :   -0.204877
   6 O :    0.109250
   7 C :   -0.208069
   8 C :   -0.141253
   9 H :    0.115833
  10 H :    0.126778
  11 H :    0.111968
  12 H :    0.116401
  13 H :    0.117511
  14 H :    0.134970
  15 H :    0.132855
  16 H :    0.123150
  17 H :    0.125136
  18 H :    0.144183

-------------------------------
LOEWDIN REDUCED ORBITAL CHARGES
-------------------------------
  0 C s       :     2.772780  s :     2.772780
      pz      :     1.014410  p :     2.943651
      px      :     0.974895
      py      :     0.954347
      dz2     :     0.057044  d :     0.392834
      dxz     :     0.088105
      dyz     :     0.093545
      dx2y2   :     0.082978
      dxy     :     0.071163
      f0      :     0.005696  f :     0.040004
      f+1     :     0.003446
      f-1     :     0.003628
      f+2     :     0.006200
      f-2     :     0.003107
      f+3     :     0.008483
      f-3     :     0.009444
  1 C s       :     2.735502  s :     2.735502
      pz      :     0.924207  p :     2.852365
      px      :     0.973553
      py      :     0.954605
      dz2     :     0.103113  d :     0.499448
      dxz     :     0.058935
      dyz     :     0.097407
      dx2y2   :     0.078161
      dxy     :     0.161832
      f0      :     0.007075  f :     0.059619
      f+1     :     0.005960
      f-1     :     0.008366
      f+2     :     0.010562
      f-2     :     0.008589
      f+3     :     0.010834
      f-3     :     0.008233
  2 C s       :     2.779629  s :     2.779629
      pz      :     0.972509  p :     2.937252
      px      :     0.980148
      py      :     0.984596
      dz2     :     0.139051  d :     0.397741
      dxz     :     0.060227
      dyz     :     0.052261
      dx2y2   :     0.047620
      dxy     :     0.098583
      f0      :     0.005325  f :     0.039032
      f+1     :     0.006323
      f-1     :     0.005467
      f+2     :     0.007525
      f-2     :     0.006458
      f+3     :     0.003993
      f-3     :     0.003942
  3 C s       :     2.679409  s :     2.679409
      pz      :     0.923917  p :     2.789321
      px      :     0.932626
      py      :     0.932778
      dz2     :     0.108235  d :     0.627609
      dxz     :     0.149218
      dyz     :     0.083716
      dx2y2   :     0.124507
      dxy     :     0.161932
      f0      :     0.009368  f :     0.076690
      f+1     :     0.013589
      f-1     :     0.006933
      f+2     :     0.013516
      f-2     :     0.011080
      f+3     :     0.010846
      f-3     :     0.011358
  4 C s       :     2.768427  s :     2.768427
      pz      :     0.990564  p :     2.995514
      px      :     1.003639
      py      :     1.001311
      dz2     :     0.107393  d :     0.378725
      dxz     :     0.081627
      dyz     :     0.048532
      dx2y2   :     0.103582
      dxy     :     0.037592
      f0      :     0.006020  f :     0.038283
      f+1     :     0.007859
      f-1     :     0.006969
      f+2     :     0.003932
      f-2     :     0.005329
      f+3     :     0.003791
      f-3     :     0.004383
  5 C s       :     2.752712  s :     2.752712
      pz      :     0.991472  p :     2.766215
      px      :     0.973314
      py      :     0.801429
      dz2     :     0.108225  d :     0.598882
      dxz     :     0.089874
      dyz     :     0.175706
      dx2y2   :     0.115747
      dxy     :     0.109329
      f0      :     0.013457  f :     0.087069
      f+1     :     0.007937
      f-1     :     0.012945
      f+2     :     0.012370
      f-2     :     0.006564
      f+3     :     0.019965
      f-3     :     0.013830
  6 O s       :     3.360348  s :     3.360348
      pz      :     1.714355  p :     4.433856
      px      :     1.337376
      py      :     1.382125
      dz2     :     0.012197  d :     0.090131
      dxz     :     0.008873
      dyz     :     0.011946
      dx2y2   :     0.026360
      dxy     :     0.030756
      f0      :     0.000578  f :     0.006415
      f+1     :     0.000434
      f-1     :     0.000745
      f+2     :     0.000777
      f-2     :     0.000306
      f+3     :     0.002456
      f-3     :     0.001120
  7 C s       :     2.743567  s :     2.743567
      pz      :     0.996707  p :     2.770449
      px      :     0.870958
      py      :     0.902783
      dz2     :     0.119727  d :     0.605509
      dxz     :     0.189612
      dyz     :     0.055054
      dx2y2   :     0.103231
      dxy     :     0.137885
      f0      :     0.015736  f :     0.088544
      f+1     :     0.011049
      f-1     :     0.006119
      f+2     :     0.006701
      f-2     :     0.013371
      f+3     :     0.020111
      f-3     :     0.015458
  8 C s       :     2.716700  s :     2.716700
      pz      :     0.942346  p :     2.855016
      px      :     0.959021
      py      :     0.953649
      dz2     :     0.142200  d :     0.514532
      dxz     :     0.123275
      dyz     :     0.101469
      dx2y2   :     0.040932
      dxy     :     0.106657
      f0      :     0.009651  f :     0.055005
      f+1     :     0.011004
      f-1     :     0.007307
      f+2     :     0.010484
      f-2     :     0.009587
      f+3     :     0.003411
      f-3     :     0.003562
  9 H s       :     0.825690  s :     0.825690
      pz      :     0.031935  p :     0.058476
      px      :     0.013886
      py      :     0.012656
 10 H s       :     0.808662  s :     0.808662
      pz      :     0.029016  p :     0.064560
      px      :     0.016350
      py      :     0.019194
 11 H s       :     0.828559  s :     0.828559
      pz      :     0.010779  p :     0.059473
      px      :     0.026018
      py      :     0.022675
 12 H s       :     0.824690  s :     0.824690
      pz      :     0.010298  p :     0.058909
      px      :     0.023158
      py      :     0.025453
 13 H s       :     0.823370  s :     0.823370
      pz      :     0.032679  p :     0.059120
      px      :     0.013727
      py      :     0.012714
 14 H s       :     0.807358  s :     0.807358
      pz      :     0.011743  p :     0.057672
      px      :     0.012979
      py      :     0.032950
 15 H s       :     0.808587  s :     0.808587
      pz      :     0.014215  p :     0.058558
      px      :     0.031909
      py      :     0.012434
 16 H s       :     0.817926  s :     0.817926
      pz      :     0.025729  p :     0.058924
      px      :     0.016540
      py      :     0.016655
 17 H s       :     0.816027  s :     0.816027
      pz      :     0.032885  p :     0.058838
      px      :     0.014113
      py      :     0.011840
 18 H s       :     0.799297  s :     0.799297
      pz      :     0.009988  p :     0.056521
      px      :     0.021906
      py      :     0.024627


                      *****************************
                      * MAYER POPULATION ANALYSIS *
                      *****************************

  NA   - Mulliken gross atomic population
  ZA   - Total nuclear charge
  QA   - Mulliken gross atomic charge
  VA   - Mayer's total valence
  BVA  - Mayer's bonded valence
  FA   - Mayer's free valence

  ATOM       NA         ZA         QA         VA         BVA        FA
  0 C      6.2294     6.0000    -0.2294     3.9925     3.9925     0.0000
  1 C      6.0502     6.0000    -0.0502     3.8245     3.8245     0.0000
  2 C      6.1520     6.0000    -0.1520     3.8932     3.8932    -0.0000
  3 C      5.9681     6.0000     0.0319     3.6847     3.6847    -0.0000
  4 C      6.1674     6.0000    -0.1674     3.9401     3.9401    -0.0000
  5 C      5.9339     6.0000     0.0661     3.9054     3.9054    -0.0000
  6 O      8.4480     8.0000    -0.4480     1.8700     1.8700     0.0000
  7 C      5.9307     6.0000     0.0693     3.8983     3.8983     0.0000
  8 C      6.1549     6.0000    -0.1549     3.8602     3.8602     0.0000
  9 H      0.9140     1.0000     0.0860     0.9798     0.9798     0.0000
 10 H      0.8642     1.0000     0.1358     0.9870     0.9870     0.0000
 11 H      0.8731     1.0000     0.1269     0.9677     0.9677    -0.0000
 12 H      0.9075     1.0000     0.0925     0.9821     0.9821     0.0000
 13 H      0.9016     1.0000     0.0984     0.9823     0.9823    -0.0000
 14 H      0.9058     1.0000     0.0942     0.9843     0.9843     0.0000
 15 H      0.8967     1.0000     0.1033     0.9789     0.9789    -0.0000
 16 H      0.8902     1.0000     0.1098     0.9699     0.9699    -0.0000
 17 H      0.8823     1.0000     0.1177     0.9679     0.9679     0.0000
 18 H      0.9301     1.0000     0.0699     0.9812     0.9812     0.0000

  Mayer bond orders larger than 0.1
B(  0-C ,  1-C ) :   0.9785 B(  0-C ,  3-C ) :   0.9720 B(  0-C ,  9-H ) :   0.9929 
B(  0-C , 10-H ) :   0.9692 B(  1-C ,  2-C ) :   0.9949 B(  1-C ,  8-C ) :   0.9374 
B(  1-C , 11-H ) :   0.9395 B(  2-C ,  3-C ) :   0.9175 B(  2-C , 12-H ) :   0.9867 
B(  2-C , 13-H ) :   0.9900 B(  3-C ,  4-C ) :   0.9687 B(  3-C ,  8-C ) :   0.9275 
B(  4-C ,  5-C ) :   0.9890 B(  4-C , 14-H ) :   0.9708 B(  4-C , 15-H ) :   0.9655 
B(  5-C ,  6-O ) :   0.9435 B(  5-C ,  7-C ) :   1.0236 B(  5-C , 16-H ) :   0.9800 
B(  6-O ,  7-C ) :   0.9093 B(  7-C ,  8-C ) :   0.9786 B(  7-C , 17-H ) :   0.9881 
B(  8-C , 18-H ) :   0.9736 

-------
TIMINGS
-------

Total SCF time: 0 days 0 hours 2 min 27 sec 

Total time                  ....     147.032 sec
Sum of individual times     ....     151.533 sec  (103.1%)

Fock matrix formation       ....     145.550 sec  ( 99.0%)
Diagonalization             ....       0.654 sec  (  0.4%)
Density matrix formation    ....       0.040 sec  (  0.0%)
Population analysis         ....       0.164 sec  (  0.1%)
Initial guess               ....       3.174 sec  (  2.2%)
Orbital Transformation      ....       0.000 sec  (  0.0%)
Orbital Orthonormalization  ....       0.000 sec  (  0.0%)
DIIS solution               ....       0.184 sec  (  0.1%)
SOSCF solution              ....       0.309 sec  (  0.2%)

   <<< Auxbasis replaced with dsgdb9nsd_038471.AUXC.tmp (Dim=834) >>> 


------------------------------------------------------------------------------
                              ORCA MP2 CALCULATION
------------------------------------------------------------------------------

Freezing NCore=18 chemical core electrons

   <<< Use J-auxbasis for calculation of Separable RI-J derivative contributions dsgdb9nsd_038471.AUXJ.tmp (Dim=857) >>> 


---------------------
RI-MP2 ENERGY+DENSITY
---------------------
Dimension of the basis                    ...  339
Memory devoted to MP2                     ... 2000 MB   
Data format for buffers                   ... DOUBLE
Compression type for matrix containers    ... UNCOMPRESSED
Overall scaling of the MP2 energy         ...   1.000e+00 Eh
Calculating two index integrals           ... done (    0.018 sec)
Cholesky decomposition of V**-1           ... done (    0.120 sec)

-----------------
RI-TRANSFORMATION (AUX index driven)
-----------------

Dimension of the orbital-basis         ... 339
Dimension of the aux-basis             ... 834
Transformation of internal MOs         ...    0-  32
Transformation of internal/external MOs...    0-  32 to   33- 338
Number Format for Storage              ... Double (8 Byte)
Integral mode                          ... Direct

First Phase: integral generation and transformation of MO indices
  Aux angular momentum 0               ... done (    0.878 sec)
  Aux angular momentum 1               ... done (    1.216 sec)
  Aux angular momentum 2               ... done (    1.303 sec)
  Aux angular momentum 3               ... done (    0.985 sec)
  Aux angular momentum 4               ... done (    0.744 sec)
Closing buffer VIJ ( 0.00 GB; CompressionRatio= 1.94)
Closing buffer VIA ( 0.06 GB; CompressionRatio= 1.00)
  Phase 1 completed in     5.228 sec
Second Phase: sorting and transformation of aux index

IJ-Transformation
Memory available                       ... 1986 MB 
Max. # MO pairs treated in a batch     ... 33    
# of internal orbitals                 ... 33
# batches for internal orbitals        ... 1
Closing buffer IJV ( 0.00 GB; CompressionRatio= 1.00)
(ij|v) transformation done in     0.378 sec

IA-Transformation
Memory available                       ... 1986 MB 
Max. # MO pairs treated in a batch     ... 33    
# of internal orbitals                 ... 33
# batches for internal orbitals        ... 1
Closing buffer IAV ( 0.06 GB; CompressionRatio= 1.00)
(ia|v) transformation done in     1.461 sec

  Phase 2 completed in     1.977 sec
RI-Integral transformation completed in     7.206 sec
Opening buffers                              ... done
Frozen core precalculation                   ... done

Starting loop over batches of integrals:

Operator 0  - window                       ... (  9- 32)x( 33-338)
Operator 0  - Memory available             ...  2000 MB
Operator 0  - Memory needed per MO         ...   3.9 MB
Operator 0  - Number of orbitals per batch ... 24
Operator 0  - Number of batches            ... 1

OPERATOR  0   PASS   0:  MOs     9 ...   32
  Reading integrals       ... ok
  Internal MO  11
  Internal MO  14
  Internal MO  17
  Internal MO  20
  Internal MO  23
  Internal MO  26
  Internal MO  29
  Internal MO  32
Time spent in pair loops =    36.949 sec
Deleting buffer (Ka|jb)[aa] ...done

-----------------------------------------------
 RI-MP2 CORRELATION ENERGY:     -1.535097255 Eh
-----------------------------------------------


---------------------
MP2 DENSITY FORMATION
---------------------

Completing the external part of the density      ... done
Storing the unrelaxed density                    ... done

Calculating G(D)                                 ... done
Completing the Lagrangian                        ... done
Solving the Z-vector equations                   ... 

------------------------------------------------------------------------------
                           ORCA CP-SCF CALCULATION
------------------------------------------------------------------------------

Input orbitals are from        ... dsgdb9nsd_038471.gbw
Input Perturbation             ... dsgdb9nsd_038471.pin.tmp
Wavefunction output            ... dsgdb9nsd_038471.pout.tmp
Perturbation mode              ... Real perturbation
Solver                         ... POPLE
Max. number of iterations      ... 128
Convergence tolerance          ... 1.000e-08
Integral handling              ... Direct
Number of perturbations        ... 1
Number of operators            ... 1
Orbital ranges used for CP-SCF:
 Operator 0:  Orbitals   0... 32  to  33...338
Variables per vector in CP-SCF ... 10098
Number of vectors sought       ... 1
     CP-SCF ITERATION   0: 
     CP-SCF ITERATION   1:      0.000909275
     CP-SCF ITERATION   2:      0.000117385
     CP-SCF ITERATION   3:      0.000009816
     CP-SCF ITERATION   4:      0.000000902
     CP-SCF ITERATION   5:      0.000000116
     CP-SCF ITERATION   6:      0.000000012
     CP-SCF ITERATION   7:      0.000000001
done
Finalizing the relaxed density                   ... done
Transforming P to the AO basis                   ... done
Storing the relaxed density                      ... done

                *********************************************
                * UNRELAXED MP2 DENSITY POPULATION ANALYSIS *
                *********************************************

------------------------------------------------------------------------------
                           ORCA POPULATION ANALYSIS
------------------------------------------------------------------------------
Input electron density              ... dsgdb9nsd_038471.pmp2ur
BaseName (.gbw .S,...)              ... dsgdb9nsd_038471

                    ********************************
                    * MULLIKEN POPULATION ANALYSIS *
                    ********************************

-----------------------
MULLIKEN ATOMIC CHARGES
-----------------------
   0 C :   -0.239129
   1 C :   -0.049537
   2 C :   -0.162703
   3 C :    0.032463
   4 C :   -0.174198
   5 C :    0.050926
   6 O :   -0.425073
   7 C :    0.055808
   8 C :   -0.162006
   9 H :    0.090047
  10 H :    0.139006
  11 H :    0.130538
  12 H :    0.096370
  13 H :    0.102427
  14 H :    0.097944
  15 H :    0.107414
  16 H :    0.113539
  17 H :    0.121615
  18 H :    0.074550
Sum of atomic charges:    0.0000000

--------------------------------
MULLIKEN REDUCED ORBITAL CHARGES
--------------------------------
  0 C s       :     3.232511  s :     3.232511
      pz      :     1.036011  p :     2.880340
      px      :     0.921902
      py      :     0.922427
      dz2     :     0.020855  d :     0.115139
      dxz     :     0.023627
      dyz     :     0.025450
      dx2y2   :     0.029300
      dxy     :     0.015907
      f0      :     0.001604  f :     0.011138
      f+1     :     0.001521
      f-1     :     0.001582
      f+2     :     0.001584
      f-2     :     0.001208
      f+3     :     0.001773
      f-3     :     0.001866
  1 C s       :     3.114408  s :     3.114408
      pz      :     0.894464  p :     2.780890
      px      :     0.961100
      py      :     0.925326
      dz2     :     0.027023  d :     0.139729
      dxz     :     0.021325
      dyz     :     0.030549
      dx2y2   :     0.027634
      dxy     :     0.033198
      f0      :     0.001844  f :     0.014510
      f+1     :     0.001474
      f-1     :     0.002155
      f+2     :     0.001635
      f-2     :     0.002186
      f+3     :     0.002710
      f-3     :     0.002505
  2 C s       :     3.206676  s :     3.206676
      pz      :     0.928969  p :     2.831596
      px      :     0.935061
      py      :     0.967566
      dz2     :     0.032146  d :     0.113501
      dxz     :     0.018451
      dyz     :     0.016788
      dx2y2   :     0.018410
      dxy     :     0.027707
      f0      :     0.001907  f :     0.010931
      f+1     :     0.001815
      f-1     :     0.001606
      f+2     :     0.001500
      f-2     :     0.001429
      f+3     :     0.001398
      f-3     :     0.001277
  3 C s       :     3.128633  s :     3.128633
      pz      :     0.902625  p :     2.645017
      px      :     0.853878
      py      :     0.888514
      dz2     :     0.027771  d :     0.176591
      dxz     :     0.045199
      dyz     :     0.026458
      dx2y2   :     0.043019
      dxy     :     0.034143
      f0      :     0.002115  f :     0.017297
      f+1     :     0.002760
      f-1     :     0.001504
      f+2     :     0.002522
      f-2     :     0.002927
      f+3     :     0.002701
      f-3     :     0.002768
  4 C s       :     3.133275  s :     3.133275
      pz      :     0.913838  p :     2.908462
      px      :     0.994391
      py      :     1.000234
      dz2     :     0.033312  d :     0.122158
      dxz     :     0.025696
      dyz     :     0.017799
      dx2y2   :     0.032582
      dxy     :     0.012768
      f0      :     0.001828  f :     0.010303
      f+1     :     0.001679
      f-1     :     0.001695
      f+2     :     0.001197
      f-2     :     0.001059
      f+3     :     0.001380
      f-3     :     0.001465
  5 C s       :     3.173166  s :     3.173166
      pz      :     0.935706  p :     2.580996
      px      :     0.961388
      py      :     0.683902
      dz2     :     0.033087  d :     0.176337
      dxz     :     0.023876
      dyz     :     0.052147
      dx2y2   :     0.033399
      dxy     :     0.033828
      f0      :     0.002912  f :     0.018575
      f+1     :     0.001879
      f-1     :     0.002985
      f+2     :     0.002760
      f-2     :     0.001858
      f+3     :     0.003356
      f-3     :     0.002826
  6 O s       :     3.855736  s :     3.855736
      pz      :     1.841049  p :     4.491796
      px      :     1.327623
      py      :     1.323125
      dz2     :     0.012390  d :     0.072519
      dxz     :     0.009039
      dyz     :     0.011477
      dx2y2   :     0.022450
      dxy     :     0.017163
      f0      :     0.000651  f :     0.005022
      f+1     :     0.000684
      f-1     :     0.000787
      f+2     :     0.000602
      f-2     :     0.000505
      f+3     :     0.000957
      f-3     :     0.000836
  7 C s       :     3.146810  s :     3.146810
      pz      :     0.957453  p :     2.597457
      px      :     0.735284
      py      :     0.904720
      dz2     :     0.034331  d :     0.181480
      dxz     :     0.056191
      dyz     :     0.021166
      dx2y2   :     0.027865
      dxy     :     0.041927
      f0      :     0.003128  f :     0.018446
      f+1     :     0.003092
      f-1     :     0.001209
      f+2     :     0.002123
      f-2     :     0.002628
      f+3     :     0.003381
      f-3     :     0.002885
  8 C s       :     3.204312  s :     3.204312
      pz      :     0.864350  p :     2.800059
      px      :     0.964012
      py      :     0.971697
      dz2     :     0.029328  d :     0.143993
      dxz     :     0.037914
      dyz     :     0.029940
      dx2y2   :     0.016821
      dxy     :     0.029991
      f0      :     0.002167  f :     0.013643
      f+1     :     0.002704
      f-1     :     0.001949
      f+2     :     0.002079
      f-2     :     0.002223
      f+3     :     0.001249
      f-3     :     0.001271
  9 H s       :     0.884592  s :     0.884592
      pz      :     0.013529  p :     0.025360
      px      :     0.006210
      py      :     0.005621
 10 H s       :     0.834260  s :     0.834260
      pz      :     0.011385  p :     0.026733
      px      :     0.007163
      py      :     0.008186
 11 H s       :     0.844267  s :     0.844267
      pz      :     0.004565  p :     0.025196
      px      :     0.011021
      py      :     0.009609
 12 H s       :     0.878155  s :     0.878155
      pz      :     0.004354  p :     0.025475
      px      :     0.010004
      py      :     0.011117
 13 H s       :     0.872005  s :     0.872005
      pz      :     0.015058  p :     0.025568
      px      :     0.005438
      py      :     0.005072
 14 H s       :     0.876812  s :     0.876812
      pz      :     0.004896  p :     0.025243
      px      :     0.004980
      py      :     0.015367
 15 H s       :     0.867213  s :     0.867213
      pz      :     0.006091  p :     0.025373
      px      :     0.014449
      py      :     0.004832
 16 H s       :     0.860533  s :     0.860533
      pz      :     0.011039  p :     0.025928
      px      :     0.007070
      py      :     0.007819
 17 H s       :     0.852484  s :     0.852484
      pz      :     0.014266  p :     0.025901
      px      :     0.006828
      py      :     0.004806
 18 H s       :     0.899095  s :     0.899095
      pz      :     0.004827  p :     0.026355
      px      :     0.010599
      py      :     0.010929


                     *******************************
                     * LOEWDIN POPULATION ANALYSIS *
                     *******************************

----------------------
LOEWDIN ATOMIC CHARGES
----------------------
   0 C :   -0.153725
   1 C :   -0.148850
   2 C :   -0.158199
   3 C :   -0.172231
   4 C :   -0.185492
   5 C :   -0.213391
   6 O :    0.124993
   7 C :   -0.216140
   8 C :   -0.143852
   9 H :    0.117714
  10 H :    0.128556
  11 H :    0.114015
  12 H :    0.118294
  13 H :    0.119438
  14 H :    0.136682
  15 H :    0.134722
  16 H :    0.124823
  17 H :    0.126821
  18 H :    0.145821

-------------------------------
LOEWDIN REDUCED ORBITAL CHARGES
-------------------------------
  0 C s       :     2.771338  s :     2.771338
      pz      :     1.007143  p :     2.918059
      px      :     0.965581
      py      :     0.945335
      dz2     :     0.062966  d :     0.418322
      dxz     :     0.092546
      dyz     :     0.098006
      dx2y2   :     0.089081
      dxy     :     0.075722
      f0      :     0.006435  f :     0.046007
      f+1     :     0.004409
      f-1     :     0.004575
      f+2     :     0.006991
      f-2     :     0.003872
      f+3     :     0.009358
      f-3     :     0.010366
  1 C s       :     2.734305  s :     2.734305
      pz      :     0.915502  p :     2.826690
      px      :     0.964997
      py      :     0.946191
      dz2     :     0.107233  d :     0.522073
      dxz     :     0.063792
      dyz     :     0.102807
      dx2y2   :     0.083778
      dxy     :     0.164465
      f0      :     0.007813  f :     0.065781
      f+1     :     0.006793
      f-1     :     0.009353
      f+2     :     0.011491
      f-2     :     0.009329
      f+3     :     0.011751
      f-3     :     0.009251
  2 C s       :     2.778205  s :     2.778205
      pz      :     0.964849  p :     2.912475
      px      :     0.971560
      py      :     0.976066
      dz2     :     0.142444  d :     0.422568
      dxz     :     0.066127
      dyz     :     0.058055
      dx2y2   :     0.053233
      dxy     :     0.102709
      f0      :     0.006225  f :     0.044951
      f+1     :     0.007279
      f-1     :     0.006320
      f+2     :     0.008499
      f-2     :     0.007167
      f+3     :     0.004783
      f-3     :     0.004679
  3 C s       :     2.678218  s :     2.678218
      pz      :     0.914476  p :     2.761539
      px      :     0.923420
      py      :     0.923643
      dz2     :     0.112498  d :     0.648794
      dxz     :     0.154236
      dyz     :     0.088632
      dx2y2   :     0.129007
      dxy     :     0.164421
      f0      :     0.010222  f :     0.083679
      f+1     :     0.014628
      f-1     :     0.007775
      f+2     :     0.014668
      f-2     :     0.012108
      f+3     :     0.011778
      f-3     :     0.012500
  4 C s       :     2.766949  s :     2.766949
      pz      :     0.980875  p :     2.968748
      px      :     0.994987
      py      :     0.992886
      dz2     :     0.112211  d :     0.405458
      dxz     :     0.086589
      dyz     :     0.054391
      dx2y2   :     0.108527
      dxy     :     0.043740
      f0      :     0.007072  f :     0.044336
      f+1     :     0.008621
      f-1     :     0.007880
      f+2     :     0.004719
      f-2     :     0.006114
      f+3     :     0.004666
      f-3     :     0.005263
  5 C s       :     2.751741  s :     2.751741
      pz      :     0.983078  p :     2.749307
      px      :     0.965299
      py      :     0.800930
      dz2     :     0.113123  d :     0.619366
      dxz     :     0.094131
      dyz     :     0.178673
      dx2y2   :     0.119959
      dxy     :     0.113480
      f0      :     0.014379  f :     0.092977
      f+1     :     0.008747
      f-1     :     0.014064
      f+2     :     0.013097
      f-2     :     0.007368
      f+3     :     0.020210
      f-3     :     0.015110
  6 O s       :     3.356431  s :     3.356431
      pz      :     1.697478  p :     4.388279
      px      :     1.323292
      py      :     1.367510
      dz2     :     0.018715  d :     0.120744
      dxz     :     0.014808
      dyz     :     0.017945
      dx2y2   :     0.033182
      dxy     :     0.036094
      f0      :     0.000997  f :     0.009553
      f+1     :     0.000865
      f-1     :     0.001189
      f+2     :     0.001221
      f-2     :     0.000719
      f+3     :     0.002863
      f-3     :     0.001700
  7 C s       :     2.742721  s :     2.742721
      pz      :     0.988362  p :     2.752858
      px      :     0.866470
      py      :     0.898027
      dz2     :     0.124171  d :     0.625964
      dxz     :     0.192781
      dyz     :     0.060019
      dx2y2   :     0.106615
      dxy     :     0.142377
      f0      :     0.016424  f :     0.094596
      f+1     :     0.012627
      f-1     :     0.006826
      f+2     :     0.007496
      f-2     :     0.014115
      f+3     :     0.020373
      f-3     :     0.016736
  8 C s       :     2.715467  s :     2.715467
      pz      :     0.932976  p :     2.827608
      px      :     0.949701
      py      :     0.944931
      dz2     :     0.145805  d :     0.539014
      dxz     :     0.128476
      dyz     :     0.106525
      dx2y2   :     0.047010
      dxy     :     0.111198
      f0      :     0.010582  f :     0.061764
      f+1     :     0.012247
      f-1     :     0.008411
      f+2     :     0.011526
      f-2     :     0.010476
      f+3     :     0.004200
      f-3     :     0.004321
  9 H s       :     0.818119  s :     0.818119
      pz      :     0.034536  p :     0.064167
      px      :     0.015459
      py      :     0.014171
 10 H s       :     0.801434  s :     0.801434
      pz      :     0.031002  p :     0.070009
      px      :     0.017958
      py      :     0.021049
 11 H s       :     0.821036  s :     0.821036
      pz      :     0.012155  p :     0.064949
      px      :     0.028167
      py      :     0.024627
 12 H s       :     0.817181  s :     0.817181
      pz      :     0.011702  p :     0.064524
      px      :     0.025187
      py      :     0.027636
 13 H s       :     0.815858  s :     0.815858
      pz      :     0.035389  p :     0.064704
      px      :     0.015185
      py      :     0.014130
 14 H s       :     0.800183  s :     0.800183
      pz      :     0.013120  p :     0.063135
      px      :     0.014338
      py      :     0.035677
 15 H s       :     0.801332  s :     0.801332
      pz      :     0.015725  p :     0.063946
      px      :     0.034463
      py      :     0.013757
 16 H s       :     0.810878  s :     0.810878
      pz      :     0.027685  p :     0.064299
      px      :     0.018060
      py      :     0.018554
 17 H s       :     0.808974  s :     0.808974
      pz      :     0.035172  p :     0.064206
      px      :     0.015828
      py      :     0.013205
 18 H s       :     0.791684  s :     0.791684
      pz      :     0.011525  p :     0.062495
      px      :     0.024097
      py      :     0.026874


                      *****************************
                      * MAYER POPULATION ANALYSIS *
                      *****************************

  NA   - Mulliken gross atomic population
  ZA   - Total nuclear charge
  QA   - Mulliken gross atomic charge
  VA   - Mayer's total valence
  BVA  - Mayer's bonded valence
  FA   - Mayer's free valence

  ATOM       NA         ZA         QA         VA         BVA        FA
  0 C      6.2391     6.0000    -0.2391     4.1042     3.7591     0.3451
  1 C      6.0495     6.0000    -0.0495     3.9099     3.5580     0.3519
  2 C      6.1627     6.0000    -0.1627     4.0079     3.6613     0.3467
  3 C      5.9675     6.0000     0.0325     3.7741     3.3976     0.3765
  4 C      6.1742     6.0000    -0.1742     4.0498     3.7261     0.3238
  5 C      5.9491     6.0000     0.0509     3.9995     3.6473     0.3522
  6 O      8.4251     8.0000    -0.4251     2.1714     1.7117     0.4598
  7 C      5.9442     6.0000     0.0558     3.9911     3.6418     0.3493
  8 C      6.1620     6.0000    -0.1620     3.9680     3.5969     0.3712
  9 H      0.9100     1.0000     0.0900     0.9891     0.9369     0.0523
 10 H      0.8610     1.0000     0.1390     0.9948     0.9448     0.0500
 11 H      0.8695     1.0000     0.1305     0.9758     0.9248     0.0510
 12 H      0.9036     1.0000     0.0964     0.9913     0.9395     0.0518
 13 H      0.8976     1.0000     0.1024     0.9911     0.9398     0.0514
 14 H      0.9021     1.0000     0.0979     0.9933     0.9408     0.0525
 15 H      0.8926     1.0000     0.1074     0.9873     0.9363     0.0510
 16 H      0.8865     1.0000     0.1135     0.9782     0.9285     0.0496
 17 H      0.8784     1.0000     0.1216     0.9753     0.9264     0.0489
 18 H      0.9254     1.0000     0.0746     0.9911     0.9354     0.0556

  Mayer bond orders larger than 0.1
B(  0-C ,  1-C ) :   0.9068 B(  0-C ,  3-C ) :   0.8986 B(  0-C ,  9-H ) :   0.9523 
B(  0-C , 10-H ) :   0.9297 B(  1-C ,  2-C ) :   0.9209 B(  1-C ,  8-C ) :   0.8639 
B(  1-C , 11-H ) :   0.9015 B(  2-C ,  3-C ) :   0.8479 B(  2-C , 12-H ) :   0.9465 
B(  2-C , 13-H ) :   0.9500 B(  3-C ,  4-C ) :   0.9086 B(  3-C ,  8-C ) :   0.8514 
B(  4-C ,  5-C ) :   0.9261 B(  4-C , 14-H ) :   0.9305 B(  4-C , 15-H ) :   0.9258 
B(  5-C ,  6-O ) :   0.8682 B(  5-C ,  7-C ) :   0.9481 B(  5-C , 16-H ) :   0.9416 
B(  6-O ,  7-C ) :   0.8344 B(  7-C ,  8-C ) :   0.9179 B(  7-C , 17-H ) :   0.9498 
B(  8-C , 18-H ) :   0.9319 


                *******************************************
                * RELAXED MP2 DENSITY POPULATION ANALYSIS *
                *******************************************

------------------------------------------------------------------------------
                           ORCA POPULATION ANALYSIS
[...]
      f-1     :     0.001590
      f+2     :     0.001362
      f-2     :     0.001391
      f+3     :     0.001307
      f-3     :     0.001239
  3 C s       :     3.196354  s :     3.196354
      pz      :     0.906131  p :     2.648371
      px      :     0.851279
      py      :     0.890961
      dz2     :     0.028983  d :     0.169708
      dxz     :     0.038752
      dyz     :     0.026896
      dx2y2   :     0.040113
      dxy     :     0.034963
      f0      :     0.002099  f :     0.016677
      f+1     :     0.002578
      f-1     :     0.001491
      f+2     :     0.002371
      f-2     :     0.002833
      f+3     :     0.002660
      f-3     :     0.002645
  4 C s       :     3.139100  s :     3.139100
      pz      :     0.929394  p :     2.951344
      px      :     1.009130
      py      :     1.012819
      dz2     :     0.029160  d :     0.111105
      dxz     :     0.024499
      dyz     :     0.016911
      dx2y2   :     0.029258
      dxy     :     0.011278
      f0      :     0.001630  f :     0.009809
      f+1     :     0.001687
      f-1     :     0.001586
      f+2     :     0.001191
      f-2     :     0.000981
      f+3     :     0.001342
      f-3     :     0.001393
  5 C s       :     3.202609  s :     3.202609
      pz      :     0.947327  p :     2.606394
      px      :     0.962166
      py      :     0.696901
      dz2     :     0.028469  d :     0.168339
      dxz     :     0.024502
      dyz     :     0.053668
      dx2y2   :     0.028353
      dxy     :     0.033348
      f0      :     0.002739  f :     0.017785
      f+1     :     0.001806
      f-1     :     0.002831
      f+2     :     0.002728
      f-2     :     0.001814
      f+3     :     0.003217
      f-3     :     0.002650
  6 O s       :     3.849879  s :     3.849879
      pz      :     1.800315  p :     4.400666
      px      :     1.303574
      py      :     1.296778
      dz2     :     0.011723  d :     0.071132
      dxz     :     0.009488
      dyz     :     0.011844
      dx2y2   :     0.020577
      dxy     :     0.017500
      f0      :     0.000665  f :     0.004999
      f+1     :     0.000672
      f-1     :     0.000776
      f+2     :     0.000607
      f-2     :     0.000514
      f+3     :     0.000959
      f-3     :     0.000805
  7 C s       :     3.193867  s :     3.193867
      pz      :     0.973882  p :     2.631634
      px      :     0.733376
      py      :     0.924376
      dz2     :     0.030989  d :     0.173469
      dxz     :     0.055236
      dyz     :     0.022703
      dx2y2   :     0.027300
      dxy     :     0.037241
      f0      :     0.003051  f :     0.017644
      f+1     :     0.002783
      f-1     :     0.001189
      f+2     :     0.002108
      f-2     :     0.002571
      f+3     :     0.003182
      f-3     :     0.002759
  8 C s       :     3.180687  s :     3.180687
      pz      :     0.860313  p :     2.780004
      px      :     0.958123
      py      :     0.961568
      dz2     :     0.029621  d :     0.134352
      dxz     :     0.032326
      dyz     :     0.028621
      dx2y2   :     0.015733
      dxy     :     0.028051
      f0      :     0.002174  f :     0.013048
      f+1     :     0.002465
      f-1     :     0.001925
      f+2     :     0.001928
      f-2     :     0.002129
      f+3     :     0.001188
      f-3     :     0.001239
  9 H s       :     0.870166  s :     0.870166
      pz      :     0.012435  p :     0.024497
      px      :     0.006294
      py      :     0.005768
 10 H s       :     0.830651  s :     0.830651
      pz      :     0.010686  p :     0.025832
      px      :     0.007125
      py      :     0.008021
 11 H s       :     0.841623  s :     0.841623
      pz      :     0.004862  p :     0.024415
      px      :     0.010364
      py      :     0.009189
 12 H s       :     0.865052  s :     0.865052
      pz      :     0.004564  p :     0.024560
      px      :     0.009501
      py      :     0.010495
 13 H s       :     0.860208  s :     0.860208
      pz      :     0.013868  p :     0.024657
      px      :     0.005553
      py      :     0.005237
 14 H s       :     0.860730  s :     0.860730
      pz      :     0.005146  p :     0.024344
      px      :     0.005158
      py      :     0.014040
 15 H s       :     0.848414  s :     0.848414
      pz      :     0.006197  p :     0.024440
      px      :     0.013225
      py      :     0.005018
 16 H s       :     0.852500  s :     0.852500
      pz      :     0.010229  p :     0.024812
      px      :     0.007050
      py      :     0.007533
 17 H s       :     0.846316  s :     0.846316
      pz      :     0.013027  p :     0.024812
      px      :     0.006643
      py      :     0.005141
 18 H s       :     0.885815  s :     0.885815
      pz      :     0.005040  p :     0.025420
      px      :     0.010059
      py      :     0.010321


                     *******************************
                     * LOEWDIN POPULATION ANALYSIS *
                     *******************************

----------------------
LOEWDIN ATOMIC CHARGES
----------------------
   0 C :   -0.169903
   1 C :   -0.160153
   2 C :   -0.173375
   3 C :   -0.180820
   4 C :   -0.205527
   5 C :   -0.238290
   6 O :    0.172323
   7 C :   -0.241711
   8 C :   -0.155533
   9 H :    0.126945
  10 H :    0.134274
  11 H :    0.122770
  12 H :    0.127005
  13 H :    0.127969
  14 H :    0.147347
  15 H :    0.144950
  16 H :    0.131636
  17 H :    0.133909
  18 H :    0.156184

-------------------------------
LOEWDIN REDUCED ORBITAL CHARGES
-------------------------------
  0 C s       :     2.779728  s :     2.779728
      pz      :     1.019217  p :     2.936408
      px      :     0.970442
      py      :     0.946749
      dz2     :     0.059763  d :     0.408449
      dxz     :     0.092329
      dyz     :     0.096849
      dx2y2   :     0.083345
      dxy     :     0.076162
      f0      :     0.006336  f :     0.045317
      f+1     :     0.004277
      f-1     :     0.004449
      f+2     :     0.006891
      f-2     :     0.003730
      f+3     :     0.009270
      f-3     :     0.010365
  1 C s       :     2.742140  s :     2.742140
      pz      :     0.922186  p :     2.839629
      px      :     0.967110
      py      :     0.950333
      dz2     :     0.104157  d :     0.513151
      dxz     :     0.065793
      dyz     :     0.098906
      dx2y2   :     0.083439
      dxy     :     0.160856
      f0      :     0.007724  f :     0.065232
      f+1     :     0.006809
      f-1     :     0.009201
      f+2     :     0.011627
      f-2     :     0.009246
      f+3     :     0.011631
      f-3     :     0.008994
  2 C s       :     2.786901  s :     2.786901
      pz      :     0.969419  p :     2.929699
      px      :     0.978356
      py      :     0.981923
      dz2     :     0.140275  d :     0.412594
      dxz     :     0.063857
      dyz     :     0.057249
      dx2y2   :     0.052215
      dxy     :     0.098997
      f0      :     0.005920  f :     0.044182
      f+1     :     0.007165
      f-1     :     0.006282
      f+2     :     0.008512
      f-2     :     0.007091
      f+3     :     0.004644
      f-3     :     0.004568
  3 C s       :     2.686622  s :     2.686622
      pz      :     0.916219  p :     2.764198
      px      :     0.923171
      py      :     0.924808
      dz2     :     0.112485  d :     0.646803
      dxz     :     0.150214
      dyz     :     0.090750
      dx2y2   :     0.129778
      dxy     :     0.163575
      f0      :     0.010237  f :     0.083197
      f+1     :     0.014490
      f-1     :     0.007820
      f+2     :     0.014840
      f-2     :     0.011949
      f+3     :     0.011584
      f-3     :     0.012277
  4 C s       :     2.774231  s :     2.774231
      pz      :     0.988218  p :     2.992983
      px      :     1.002587
      py      :     1.002179
      dz2     :     0.108416  d :     0.394366
      dxz     :     0.085406
      dyz     :     0.054462
      dx2y2   :     0.104035
      dxy     :     0.042047
      f0      :     0.006885  f :     0.043947
      f+1     :     0.008655
      f-1     :     0.007890
      f+2     :     0.004675
      f-2     :     0.006145
      f+3     :     0.004610
      f-3     :     0.005086
  5 C s       :     2.760828  s :     2.760828
      pz      :     0.984431  p :     2.767591
      px      :     0.972098
      py      :     0.811062
      dz2     :     0.112440  d :     0.618537
      dxz     :     0.094824
      dyz     :     0.182016
      dx2y2   :     0.116437
      dxy     :     0.112821
      f0      :     0.014254  f :     0.091333
      f+1     :     0.008766
      f-1     :     0.013830
      f+2     :     0.012487
      f-2     :     0.007323
      f+3     :     0.019337
      f-3     :     0.015336
  6 O s       :     3.362760  s :     3.362760
      pz      :     1.670150  p :     4.332971
      px      :     1.310980
      py      :     1.351841
      dz2     :     0.018568  d :     0.122283
      dxz     :     0.015447
      dyz     :     0.018635
      dx2y2   :     0.033049
      dxy     :     0.036584
      f0      :     0.001017  f :     0.009664
      f+1     :     0.000885
      f-1     :     0.001206
      f+2     :     0.001249
      f-2     :     0.000734
      f+3     :     0.002813
      f-3     :     0.001759
  7 C s       :     2.751891  s :     2.751891
      pz      :     0.991657  p :     2.773341
      px      :     0.867777
      py      :     0.913907
      dz2     :     0.122187  d :     0.623794
      dxz     :     0.195096
      dyz     :     0.061755
      dx2y2   :     0.105502
      dxy     :     0.139254
      f0      :     0.016230  f :     0.092684
      f+1     :     0.012293
      f-1     :     0.006833
      f+2     :     0.007314
      f-2     :     0.013698
      f+3     :     0.019347
      f-3     :     0.016970
  8 C s       :     2.724577  s :     2.724577
      pz      :     0.933394  p :     2.835638
      px      :     0.951764
      py      :     0.950480
      dz2     :     0.145670  d :     0.534238
      dxz     :     0.125962
      dyz     :     0.107731
      dx2y2   :     0.047397
      dxy     :     0.107479
      f0      :     0.010391  f :     0.061080
      f+1     :     0.012078
      f-1     :     0.008374
      f+2     :     0.011620
      f-2     :     0.010298
      f+3     :     0.004109
      f-3     :     0.004209
  9 H s       :     0.807454  s :     0.807454
      pz      :     0.034785  p :     0.065601
      px      :     0.016068
      py      :     0.014748
 10 H s       :     0.794680  s :     0.794680
      pz      :     0.031065  p :     0.071046
      px      :     0.018432
      py      :     0.021549
 11 H s       :     0.810856  s :     0.810856
      pz      :     0.012852  p :     0.066374
      px      :     0.028508
      py      :     0.025013
 12 H s       :     0.807222  s :     0.807222
      pz      :     0.012210  p :     0.065773
      px      :     0.025581
      py      :     0.027982
 13 H s       :     0.806075  s :     0.806075
      pz      :     0.035650  p :     0.065956
      px      :     0.015690
      py      :     0.014616
 14 H s       :     0.788109  s :     0.788109
      pz      :     0.013841  p :     0.064545
      px      :     0.014882
      py      :     0.035821
 15 H s       :     0.789793  s :     0.789793
      pz      :     0.016397  p :     0.065256
      px      :     0.034561
      py      :     0.014298
 16 H s       :     0.802921  s :     0.802921
      pz      :     0.027651  p :     0.065443
      px      :     0.018598
      py      :     0.019194
 17 H s       :     0.800758  s :     0.800758
      pz      :     0.034996  p :     0.065334
      px      :     0.016364
      py      :     0.013974
 18 H s       :     0.779676  s :     0.779676
      pz      :     0.012233  p :     0.064140
      px      :     0.024596
      py      :     0.027312


                      *****************************
                      * MAYER POPULATION ANALYSIS *
                      *****************************

  NA   - Mulliken gross atomic population
  ZA   - Total nuclear charge
  QA   - Mulliken gross atomic charge
  VA   - Mayer's total valence
  BVA  - Mayer's bonded valence
  FA   - Mayer's free valence

  ATOM       NA         ZA         QA         VA         BVA        FA
  0 C      6.2198     6.0000    -0.2198     4.0636     3.7243     0.3394
  1 C      6.1166     6.0000    -0.1166     3.9556     3.6080     0.3476
  2 C      6.1654     6.0000    -0.1654     3.9907     3.6486     0.3422
  3 C      6.0311     6.0000    -0.0311     3.9062     3.5364     0.3698
  4 C      6.2114     6.0000    -0.2114     4.0223     3.7028     0.3194
  5 C      5.9951     6.0000     0.0049     4.0587     3.7139     0.3448
  6 O      8.3267     8.0000    -0.3267     2.2961     1.8487     0.4475
  7 C      6.0166     6.0000    -0.0166     4.0511     3.7099     0.3412
  8 C      6.1081     6.0000    -0.1081     3.9325     3.5693     0.3632
  9 H      0.8947     1.0000     0.1053     0.9834     0.9323     0.0511
 10 H      0.8565     1.0000     0.1435     0.9962     0.9472     0.0490
 11 H      0.8660     1.0000     0.1340     0.9738     0.9236     0.0502
 12 H      0.8896     1.0000     0.1104     0.9857     0.9350     0.0507
 13 H      0.8849     1.0000     0.1151     0.9847     0.9344     0.0503
 14 H      0.8851     1.0000     0.1149     0.9865     0.9357     0.0508
 15 H      0.8729     1.0000     0.1271     0.9792     0.9293     0.0499
 16 H      0.8773     1.0000     0.1227     0.9730     0.9247     0.0483
 17 H      0.8711     1.0000     0.1289     0.9714     0.9235     0.0479
 18 H      0.9112     1.0000     0.0888     0.9843     0.9305     0.0538

  Mayer bond orders larger than 0.1
B(  0-C ,  1-C ) :   0.9147 B(  0-C ,  3-C ) :   0.9123 B(  0-C ,  9-H ) :   0.9348 
B(  0-C , 10-H ) :   0.9092 B(  1-C ,  2-C ) :   0.9169 B(  1-C ,  8-C ) :   0.8671 
B(  1-C , 11-H ) :   0.8935 B(  2-C ,  3-C ) :   0.8635 B(  2-C , 12-H ) :   0.9275 
B(  2-C , 13-H ) :   0.9282 B(  3-C ,  4-C ) :   0.9323 B(  3-C ,  8-C ) :   0.8638 
B(  4-C ,  5-C ) :   0.9422 B(  4-C , 14-H ) :   0.9036 B(  4-C , 15-H ) :   0.9063 
B(  5-C ,  6-O ) :   0.9279 B(  5-C ,  7-C ) :   0.9251 B(  5-C , 16-H ) :   0.9268 
B(  6-O ,  7-C ) :   0.8962 B(  7-C ,  8-C ) :   0.9264 B(  7-C , 17-H ) :   0.9398 
B(  8-C , 18-H ) :   0.9156 


-------
TIMINGS
-------

Total time                : 1110.869 sec
Integral trafo            :    7.214 sec (  0.6%)
FC preparation            :    3.569 sec (  0.3%)
I/O of integrals          :    0.052 sec (  0.0%)
K(i,j) Operators          :    8.638 sec (  0.8%)
T(i,j) pair energies      :    0.782 sec (  0.1%)
V-calculation             :    0.018 sec (  0.0%)
V**(-1/2)                 :    0.120 sec (  0.0%)
Gamma(ia|P)               :    8.443 sec (  0.8%)
Gamma-Trafo               :    1.416 sec (  0.1%)
D(virtual)                :    3.222 sec (  0.3%)
D(internal)               :    2.997 sec (  0.3%)
W(virtual)                :    0.000 sec (  0.0%)
W(internal)               :    0.000 sec (  0.0%)
L(virtual)                :   10.948 sec (  1.0%)
L(internal)               :    0.178 sec (  0.0%)
G(D)                      :  128.396 sec ( 11.6%)
G(Z)                      :    0.000 sec (  0.0%)
Z-Vector Solution         :  934.184 sec ( 84.1%)
3-Index Derivative        :    0.000 sec (  0.0%)
2-Index Derivative        :    0.000 sec (  0.0%)
Separable Gradient (RIJ)  :    0.000 sec (  0.0%)
Separable Gradient (X)    :    0.000 sec (  0.0%)


---------------------------------------
MP2 TOTAL ENERGY:     -385.134104482 Eh
---------------------------------------

-------------------------   --------------------
FINAL SINGLE POINT ENERGY      -385.134104482364
-------------------------   --------------------


                            ***************************************
                            *     ORCA property calculations      *
                            ***************************************

                                    ---------------------
                                    Active property flags
                                    ---------------------
   (+) Dipole Moment


------------------------------------------------------------------------------
                       ORCA ELECTRIC PROPERTIES CALCULATION
------------------------------------------------------------------------------

Dipole Moment Calculation                       ... on
Quadrupole Moment Calculation                   ... off
Polarizability Calculation                      ... off
GBWName                                         ... dsgdb9nsd_038471.gbw
Electron density file                           ... dsgdb9nsd_038471.scfp.tmp

-------------
DIPOLE MOMENT
-------------
                                X             Y             Z
Electronic contribution:     -1.03412       1.10056      -3.53506
Nuclear contribution   :      1.39854      -1.79316       3.71418
                        -----------------------------------------
Total Dipole Moment    :      0.36442      -0.69260       0.17912
                        -----------------------------------------
Magnitude (a.u.)       :      0.80286
Magnitude (Debye)      :      2.04071


                         *** MP2 UNRELAXED DENSITY ***

------------------------------------------------------------------------------
                       ORCA ELECTRIC PROPERTIES CALCULATION
------------------------------------------------------------------------------

Dipole Moment Calculation                       ... on
Quadrupole Moment Calculation                   ... off
Polarizability Calculation                      ... off
GBWName                                         ... dsgdb9nsd_038471.gbw
Electron density file                           ... dsgdb9nsd_038471.pmp2ur

-------------
DIPOLE MOMENT
-------------
                                X             Y             Z
Electronic contribution:     -1.05764       1.13097      -3.54225
Nuclear contribution   :      1.39854      -1.79316       3.71418
                        -----------------------------------------
Total Dipole Moment    :      0.34090      -0.66220       0.17193
                        -----------------------------------------
Magnitude (a.u.)       :      0.76438
Magnitude (Debye)      :      1.94290


                           *** MP2 RELAXED DENSITY ***

------------------------------------------------------------------------------
                       ORCA ELECTRIC PROPERTIES CALCULATION
------------------------------------------------------------------------------

Dipole Moment Calculation                       ... on
Quadrupole Moment Calculation                   ... off
Polarizability Calculation                      ... off
GBWName                                         ... dsgdb9nsd_038471.gbw
Electron density file                           ... dsgdb9nsd_038471.pmp2re

-------------
DIPOLE MOMENT
-------------
                                X             Y             Z
Electronic contribution:     -1.11043       1.17698      -3.57024
Nuclear contribution   :      1.39854      -1.79316       3.71418
                        -----------------------------------------
Total Dipole Moment    :      0.28811      -0.61618       0.14394
                        -----------------------------------------
Magnitude (a.u.)       :      0.69527
Magnitude (Debye)      :      1.76724


Timings for individual modules:

Sum of individual times         ...     1261.845 sec (=  21.031 min)
GTO integral calculation        ...        0.549 sec (=   0.009 min)   0.0 %
SCF iterations                  ...      150.276 sec (=   2.505 min)  11.9 %
MP2 module                      ...     1111.020 sec (=  18.517 min)  88.0 %
                             ****ORCA TERMINATED NORMALLY****
TOTAL RUN TIME: 0 days 0 hours 21 minutes 2 seconds 349 msec
