
                                 *****************
                                 * O   R   C   A *
                                 *****************

           --- An Ab Initio, DFT and Semiempirical electronic structure package ---

                  #######################################################
                  #                        -***-                        #
                  #  Department of molecular theory and spectroscopy    #
                  #              Directorship: Frank Neese              #
                  # Max Planck Institute for Chemical Energy Conversion #
                  #                  D-45470 Muelheim/Ruhr              #
                  #                       Germany                       #
                  #                                                     #
                  #                  All rights reserved                #
                  #                        -***-                        #
                  #######################################################


                         Program Version 3.0.3 - RELEASE   -


 With contributions from (in alphabetic order):
   Ute Becker             : Parallelization
   Dmytro Bykov           : SCF Hessian
   Dmitry Ganyushin       : Spin-Orbit,Spin-Spin,Magnetic field MRCI
   Andreas Hansen         : Spin unrestricted coupled pair/coupled cluster methods
   Dimitrios Liakos       : Extrapolation schemes; parallel MDCI
   Robert Izsak           : Overlap fitted RIJCOSX, COSX-SCS-MP3
   Christian Kollmar      : KDIIS, OOCD, Brueckner-CCSD(T), CCSD density
   Simone Kossmann        : Meta GGA functionals, TD-DFT gradient, OOMP2, MP2 Hessian
   Taras Petrenko         : DFT Hessian,TD-DFT gradient, ASA and ECA modules, normal mode analysis, Resonance Raman, ABS, FL, XAS/XES, NRVS
   Christoph Reimann      : Effective Core Potentials
   Michael Roemelt        : Restricted open shell CIS
   Christoph Riplinger    : Improved optimizer, TS searches, QM/MM, DLPNO-CCSD
   Barbara Sandhoefer     : DKH picture change effects
   Igor Schapiro          : Molecular dynamics
   Kantharuban Sivalingam : CASSCF convergence, NEVPT2
   Boris Wezisla          : Elementary symmetry handling
   Frank Wennmohs         : Technical directorship


 We gratefully acknowledge several colleagues who have allowed us to
 interface, adapt or use parts of their codes:
   Stefan Grimme, W. Hujo, H. Kruse, T. Risthaus : VdW corrections, initial TS optimization,
                                                   DFT functionals, gCP
   Ed Valeev                                     : LibInt (2-el integral package), F12 methods
   Garnet Chan, S. Sharma, R. Olivares           : DMRG
   Ulf Ekstrom                                   : XCFun DFT Library
   Mihaly Kallay                                 : mrcc  (arbitrary order and MRCC methods)
   Andreas Klamt, Michael Diedenhofen            : otool_cosmo (COSMO solvation model)
   Frank Weinhold                                : gennbo (NPA and NBO analysis)
   Christopher J. Cramer and Donald G. Truhlar   : smd solvation model


 Your calculation uses the libint2 library for the computation of 2-el integrals
 For citations please refer to: http://libint.valeyev.net

 This ORCA versions uses:
   CBLAS   interface :  Fast vector & matrix operations
   LAPACKE interface :  Fast linear algebra routines
   SCALAPACK package :  Parallel linear algebra routines


Your calculation utilizes the basis: Ahlrichs-TZV
Cite in your paper:
H - Kr: A. Schaefer, H. Horn and R. Ahlrichs, J. Chem. Phys. 97, 2571 (1992).

The def2-TZV basis will be loaded
Cite in your paper:
 	F. Weigend, R. Ahlrichs, Phys. Chem. Chem. Phys. 2005, 7, 3297.

================================================================================
                                        WARNINGS
                       Please study these warnings very carefully!
================================================================================
Now building the actual basis set


INFO   : the flag for use of LIBINT has been found!

================================================================================
                                       INPUT FILE
================================================================================
NAME = dsgdb9nsd_041775.inp
|  1> ! RI-MP2 RIJK def2-TZVP def2-TZVP/C def2-TZVP/JK TIGHTSCF
|  2> % maxcore 2000
|  3> % mp2 density relaxed end
|  4> *xyz 0 1
|  5>  C       -0.0005518370     1.5405477722    -0.0888490570 
|  6>  O        1.3335611707     1.9159435690     0.2556693856 
|  7>  C        2.0390141714     0.7665510515     0.7332699934 
|  8>  C        3.3902749940     0.6144397730     0.0826332182 
|  9>  C        3.8192995813    -0.5546201019    -0.3932982032 
| 10>  C        3.0200261120    -1.8359881695    -0.3823381977 
| 11>  C        1.7592071487    -1.7675517424     0.5171929425 
| 12>  C        1.1544370251    -0.4088574592     0.4056382471 
| 13>  C       -0.0075070398     0.0347144727    -0.0596398923 
| 14>  H       -0.7198325927     1.9792611697     0.6239400987 
| 15>  H       -0.2424051247     1.9470543704    -1.0817335985 
| 16>  H        2.1769194211     0.8676492282     1.8270979288 
| 17>  H        4.0118548741     1.5042394978     0.0331410224 
| 18>  H        4.8065814615    -0.6150678997    -0.8467597980 
| 19>  H        2.7198938909    -2.0685271480    -1.4140995663 
| 20>  H        3.6574664304    -2.6709462809    -0.0662714162 
| 21>  H        1.0486091708    -2.5539639344     0.2470133906 
| 22>  H        2.0629812009    -1.9474957887     1.5574813338 
| 23>  H       -0.8446919287    -0.5628750998    -0.3994217219 
| 24> *
| 25> 
| 26>                          ****END OF INPUT****
================================================================================

                       ****************************
                       * Single Point Calculation *
                       ****************************

---------------------------------
CARTESIAN COORDINATES (ANGSTROEM)
---------------------------------
  C     -0.000552    1.540548   -0.088849
  O      1.333561    1.915944    0.255669
  C      2.039014    0.766551    0.733270
  C      3.390275    0.614440    0.082633
  C      3.819300   -0.554620   -0.393298
  C      3.020026   -1.835988   -0.382338
  C      1.759207   -1.767552    0.517193
  C      1.154437   -0.408857    0.405638
  C     -0.007507    0.034714   -0.059640
  H     -0.719833    1.979261    0.623940
  H     -0.242405    1.947054   -1.081734
  H      2.176919    0.867649    1.827098
  H      4.011855    1.504239    0.033141
  H      4.806581   -0.615068   -0.846760
  H      2.719894   -2.068527   -1.414100
  H      3.657466   -2.670946   -0.066271
  H      1.048609   -2.553964    0.247013
  H      2.062981   -1.947496    1.557481
  H     -0.844692   -0.562875   -0.399422

----------------------------
CARTESIAN COORDINATES (A.U.)
----------------------------
  NO LB      ZA    FRAG    MASS        X           Y           Z
   0 C     6.0000    0    12.011         -0.001042820800565          2.911213385680503         -0.167900384987159
   1 O     8.0000    0    15.999          2.520065395454409          3.620608633457655          0.483145119611910
   2 C     6.0000    0    12.011          3.853178367130366          1.448571555004365          1.385679469748244
   3 C     6.0000    0    12.011          6.406691257341515          1.161122896758741          0.156154151962557
   4 C     6.0000    0    12.011          7.217430232057104         -1.048080100958498         -0.743225893011311
   5 C     6.0000    0    12.011          5.707022268970989         -3.469514825474391         -0.722514484190040
   6 C     6.0000    0    12.011          3.324419723879480         -3.340188720671324          0.977353019721881
   7 C     6.0000    0    12.011          2.181569816297774         -0.772628625698882          0.766545196462876
   8 C     6.0000    0    12.011         -0.014186249298447          0.065600846286486         -0.112703063103559
   9 H     1.0000    0     1.008         -1.360286462473482          3.740261558237636          1.179075910514795
  10 H     1.0000    0     1.008         -0.458079299142030          3.679399527910469         -2.044180251026129
  11 H     1.0000    0     1.008          4.113781521493392          1.639619421606144          3.452714705286750
  12 H     1.0000    0     1.008          7.581307001086123          2.842600690669239          0.062627456134150
  13 H     1.0000    0     1.008          9.083122602617955         -1.162309884199145         -1.600144119434480
  14 H     1.0000    0     1.008          5.139854567126488         -3.908949810301193         -2.672260906403818
  15 H     1.0000    0     1.008          6.911609897466553         -5.047356989316502         -0.125234827125112
  16 H     1.0000    0     1.008          1.981584154330253         -4.826292391928021          0.466787659645318
  17 H     1.0000    0     1.008          3.898469489128978         -3.680233687607970          2.943213179576389
  18 H     1.0000    0     1.008         -1.596236412776737         -1.063679786225593         -0.754797666330256

--------------------------------
INTERNAL COORDINATES (ANGSTROEM)
--------------------------------
 C      0   0   0   0.000000     0.000     0.000
 O      1   0   0   1.428101     0.000     0.000
 C      2   1   0   1.430688   109.268     0.000
 C      3   2   1   1.507439   112.271   131.750
 C      4   3   2   1.333144   122.076   226.198
 C      5   4   3   1.510252   124.828     1.822
 C      6   5   4   1.550324   113.401   347.118
 C      7   6   5   1.491389   109.063    37.453
 C      8   7   6   1.327913   133.263   115.769
 H      1   2   3   1.103586   110.399   110.518
 H      1   2   3   1.099800   109.030   227.825
 H      3   2   1   1.107113   108.535   252.185
 H      4   3   2   1.086533   116.733    47.203
 H      5   4   3   1.088121   119.306   180.523
 H      6   5   4   1.099402   108.489   108.852
 H      6   5   4   1.096988   109.898   223.787
 H      7   6   5   1.093796   110.688   160.987
 H      7   6   5   1.098571   108.501   278.359
 H      9   8   7   1.083256   127.004     6.131

---------------------------
INTERNAL COORDINATES (A.U.)
---------------------------
 C      0   0   0   0.000000     0.000     0.000
 O      1   0   0   2.698720     0.000     0.000
 C      2   1   0   2.703609   109.268     0.000
 C      3   2   1   2.848647   112.271   131.750
 C      4   3   2   2.519278   122.076   226.198
 C      5   4   3   2.853963   124.828     1.822
 C      6   5   4   2.929688   113.401   347.118
 C      7   6   5   2.818317   109.063    37.453
 C      8   7   6   2.509393   133.263   115.769
 H      1   2   3   2.085476   110.399   110.518
 H      1   2   3   2.078321   109.030   227.825
 H      3   2   1   2.092140   108.535   252.185
 H      4   3   2   2.053250   116.733    47.203
 H      5   4   3   2.056250   119.306   180.523
 H      6   5   4   2.077569   108.489   108.852
 H      6   5   4   2.073008   109.898   223.787
 H      7   6   5   2.066976   110.688   160.987
 H      7   6   5   2.075999   108.501   278.359
 H      9   8   7   2.047057   127.004     6.131

---------------------
BASIS SET INFORMATION
---------------------
There are 3 groups of distinct atoms

 Group   1 Type C   : 11s6p2d1f contracted to 5s3p2d1f pattern {62111/411/11/1}
 Group   2 Type O   : 11s6p2d1f contracted to 5s3p2d1f pattern {62111/411/11/1}
 Group   3 Type H   : 5s1p contracted to 3s1p pattern {311/1}

Atom   0C    basis set group =>   1
Atom   1O    basis set group =>   2
Atom   2C    basis set group =>   1
Atom   3C    basis set group =>   1
Atom   4C    basis set group =>   1
Atom   5C    basis set group =>   1
Atom   6C    basis set group =>   1
Atom   7C    basis set group =>   1
Atom   8C    basis set group =>   1
Atom   9H    basis set group =>   3
Atom  10H    basis set group =>   3
Atom  11H    basis set group =>   3
Atom  12H    basis set group =>   3
Atom  13H    basis set group =>   3
Atom  14H    basis set group =>   3
Atom  15H    basis set group =>   3
Atom  16H    basis set group =>   3
Atom  17H    basis set group =>   3
Atom  18H    basis set group =>   3
-------------------------------
AUXILIARY BASIS SET INFORMATION
-------------------------------
There are 3 groups of distinct atoms

 Group   1 Type C   : 14s10p6d2f1g contracted to 10s8p5d1f1g pattern {5111111111/31111111/21111/2/1}
 Group   2 Type O   : 14s10p6d2f1g contracted to 10s8p4d2f1g pattern {5111111111/31111111/3111/11/1}
 Group   3 Type H   : 4s2p2d contracted to 2s2p2d pattern {31/11/11}

Atom   0C    basis set group =>   1
Atom   1O    basis set group =>   2
Atom   2C    basis set group =>   1
Atom   3C    basis set group =>   1
Atom   4C    basis set group =>   1
Atom   5C    basis set group =>   1
Atom   6C    basis set group =>   1
Atom   7C    basis set group =>   1
Atom   8C    basis set group =>   1
Atom   9H    basis set group =>   3
Atom  10H    basis set group =>   3
Atom  11H    basis set group =>   3
Atom  12H    basis set group =>   3
Atom  13H    basis set group =>   3
Atom  14H    basis set group =>   3
Atom  15H    basis set group =>   3
Atom  16H    basis set group =>   3
Atom  17H    basis set group =>   3
Atom  18H    basis set group =>   3
------------------------------------------------------------------------------
                           ORCA GTO INTEGRAL CALCULATION
                           -- RI-GTO INTEGRALS CHOSEN --
------------------------------------------------------------------------------

                         BASIS SET STATISTICS AND STARTUP INFO

Gaussian basis set:
 # of primitive gaussian shells          ...  240
 # of primitive gaussian functions       ...  494
 # of contracted shells                  ...  139
 # of contracted basis functions         ...  339
 Highest angular momentum                ...    3
 Maximum contraction depth               ...    6
Auxiliary gaussian basis set:
 # of primitive gaussian shells          ...  377
 # of primitive gaussian functions       ... 1073
 # of contracted shells                  ...  285
 # of contracted aux-basis functions     ...  857
 Highest angular momentum                ...    4
 Maximum contraction depth               ...    5
Ratio of auxiliary to basis functions    ...  2.53
Integral package used                  ... LIBINT
 One Electron integrals                  ... done
 Ordering auxiliary basis shells         ... done
 Integral threshhold             Thresh  ...  2.500e-11
 Primitive cut-off               TCut    ...  2.500e-12
 Pre-screening matrix                    ... done
 Shell pair data                         ... 
 Ordering of the shell pairs             ... done (   0.002 sec) 9034 of 9730 pairs
 Determination of significant pairs      ... done (   0.000 sec)
 Creation of shell pair data             ... done (   0.002 sec)
 Storage of shell pair data              ... done (   0.002 sec)
 Shell pair data done in (   0.006 sec)
 Computing two index integrals           ... done
 Cholesky decomposition of the V-matrix  ... done


Timings:
 Total evaluation time                   ...   0.409 sec (  0.007 min)
 One electron matrix time                ...   0.097 sec (  0.002 min) = 23.7%
 Schwartz matrix evaluation time         ...   0.221 sec (  0.004 min) = 54.0%
 Two index repulsion integral time       ...   0.022 sec (  0.000 min) =  5.5%
 Cholesky decomposition of V             ...   0.035 sec (  0.001 min) =  8.6%
 Three index repulsion integral time     ...   0.000 sec (  0.000 min) =  0.0%

-------------------------------------------------------------------------------
                                 ORCA SCF
-------------------------------------------------------------------------------

------------
SCF SETTINGS
------------
Hamiltonian:
 Ab initio Hamiltonian  Method          .... Hartree-Fock(GTOs)
 RI-approximation to the Coulomb term is turned on
   Number of auxiliary basis functions  .... 857
   RI-JK (J+K treated both via RI)      .... on


General Settings:
 Integral files         IntName         .... dsgdb9nsd_041775
 Hartree-Fock type      HFTyp           .... RHF
 Total Charge           Charge          ....    0
 Multiplicity           Mult            ....    1
 Number of Electrons    NEL             ....   66
 Basis Dimension        Dim             ....  339
 Nuclear Repulsion      ENuc            ....    444.3322942348 Eh

Convergence Acceleration:
 DIIS                   CNVDIIS         .... on
   Start iteration      DIISMaxIt       ....    12
   Startup error        DIISStart       ....  0.200000
   # of expansion vecs  DIISMaxEq       ....     5
   Bias factor          DIISBfac        ....   1.050
   Max. coefficient     DIISMaxC        ....  10.000
 Newton-Raphson         CNVNR           .... off
 SOSCF                  CNVSOSCF        .... on
   Start iteration      SOSCFMaxIt      ....   150
   Startup grad/error   SOSCFStart      ....  0.003300
 Level Shifting         CNVShift        .... on
   Level shift para.    LevelShift      ....    0.2500
   Turn off err/grad.   ShiftErr        ....    0.0010
 Zerner damping         CNVZerner       .... off
 Static damping         CNVDamp         .... on
   Fraction old density DampFac         ....    0.7000
   Max. Damping (<1)    DampMax         ....    0.9800
   Min. Damping (>=0)   DampMin         ....    0.0000
   Turn off err/grad.   DampErr         ....    0.1000
 Fernandez-Rico         CNVRico         .... off

SCF Procedure:
 Maximum # iterations   MaxIter         ....   125
 SCF integral mode      SCFMode         .... Direct
   Integral package                     .... LIBINT
 Reset frequeny         DirectResetFreq ....    20
 Integral Threshold     Thresh          ....  2.500e-11 Eh
 Primitive CutOff       TCut            ....  2.500e-12 Eh

Convergence Tolerance:
 Convergence Check Mode ConvCheckMode   .... Total+1el-Energy
 Energy Change          TolE            ....  1.000e-08 Eh
 1-El. energy change                    ....  1.000e-05 Eh
 Orbital Gradient       TolG            ....  1.000e-05
 Orbital Rotation angle TolX            ....  1.000e-05
 DIIS Error             TolErr          ....  5.000e-07


Diagonalization of the overlap matrix:
Smallest eigenvalue                        ... 4.423e-05
Time for diagonalization                   ...    0.034 sec
Threshold for overlap eigenvalues          ... 1.000e-08
Number of eigenvalues below threshold      ... 0
Time for construction of square roots      ...    0.018 sec
Total time needed                          ...    0.052 sec

-------------------
DFT GRID GENERATION
-------------------

General Integration Accuracy     IntAcc      ...  4.340
Radial Grid Type                 RadialGrid  ... Gauss-Chebyshev
Angular Grid (max. acc.)         AngularGrid ... Lebedev-110
Angular grid pruning method      GridPruning ... 3 (G Style)
Weight generation scheme         WeightScheme... Becke
Basis function cutoff            BFCut       ...    1.0000e-11
Integration weight cutoff        WCut        ...    1.0000e-14
Grids for H and He will be reduced by one unit

# of grid points (after initial pruning)     ...  22904 (   0.0 sec)
# of grid points (after weights+screening)   ...  20944 (   0.1 sec)
nearest neighbour list constructed           ...    0.0 sec
Grid point re-assignment to atoms done       ...    0.0 sec
Grid point division into batches done        ...    0.0 sec
Reduced shell lists constructed in    1.4 sec

Total number of grid points                  ...    20944
Total number of batches                      ...      336
Average number of points per batch           ...       62
Average number of grid points per atom       ...     1102
Average number of shells per batch           ...    95.34 (68.59%)
Average number of basis functions per batch  ...   240.53 (70.95%)
Average number of large shells per batch     ...    74.93 (78.59%)
Average number of large basis fcns per batch ...   186.66 (77.61%)
Average number of aux-shells per batch       ...    95.34 (33.45%)
Average number of aux functions per batch    ...   240.53 (  inf%)
Maximum spatial batch extension              ...  20.60, 20.52, 21.19 au
Average spatial batch extension              ...   3.70,  3.59,  3.66 au

Time for grid setup =    1.568 sec

------------------------------
INITIAL GUESS: MODEL POTENTIAL
------------------------------
Loading Hartree-Fock densities                     ... done
Calculating cut-offs                               ... done
Setting up the integral package                    ... done
Initializing the effective Hamiltonian             ... done
Starting the Coulomb interaction                   ... done (   0.7 sec)
Reading the grid                                   ... done
Mapping shells                                     ... done
Starting the XC term evaluation                    ... done (   0.8 sec)
Transforming the Hamiltonian                       ... done (   0.0 sec)
Diagonalizing the Hamiltonian                      ... done (   0.0 sec)
Back transforming the eigenvectors                 ... done (   0.0 sec)
Now organizing SCF variables                       ... done
                      ------------------
                      INITIAL GUESS DONE (   3.3 sec)
                      ------------------
--------------
SCF ITERATIONS
--------------
ITER       Energy         Delta-E        Max-DP      RMS-DP      [F,P]     Damp
  0   -383.3453839303   0.000000000000 0.02801252  0.00076677  0.2963824 0.7000
  1   -383.2482909279   0.097093002411 0.02735517  0.00081150  0.2478857 0.7000
                               ***Turning on DIIS***
  2   -383.2920121768  -0.043721248858 0.01884746  0.00061693  0.1806674 0.7000
  3   -384.5524688573  -1.260456680502 0.01302061  0.00038639  0.1265450 0.7000
  4   -383.7600664521   0.792402405169 0.03510426  0.00094300  0.0840898 0.0000
  5   -383.7746551650  -0.014588712920 0.00673854  0.00016851  0.0164724 0.0000
  6   -383.6407143432   0.133940821877 0.00301240  0.00009657  0.0083364 0.0000
  7   -383.6687947537  -0.028080410502 0.00185999  0.00005374  0.0050058 0.0000
                      *** Initiating the SOSCF procedure ***
                           *** Shutting down DIIS ***
                      *** Re-Reading the Fockian *** 
                      *** Removing any level shift *** 
ITER      Energy       Delta-E        Grad      Rot      Max-DP    RMS-DP
  8   -383.65451605   0.0142787070  0.000534  0.000534  0.001488  0.000043
  9   -383.72247756  -0.0679615149  0.000104  0.000206  0.000500  0.000014
 10   -383.72247884  -0.0000012829  0.000075  0.000139  0.000241  0.000007
 11   -383.72247915  -0.0000003100  0.000016  0.000042  0.000053  0.000002
 12   -383.72247918  -0.0000000228  0.000007  0.000024  0.000020  0.000001
                  ***Gradient check signals convergence***
              ***Rediagonalizing the Fockian in SOSCF/NRSCF***

               *****************************************************
               *                     SUCCESS                       *
               *           SCF CONVERGED AFTER  13 CYCLES          *
               *****************************************************


----------------
TOTAL SCF ENERGY
----------------

Total Energy       :         -383.72247918 Eh          -10441.61950 eV

Components:
Nuclear Repulsion  :          444.33229423 Eh           12090.89642 eV
Electronic Energy  :         -828.05477342 Eh          -22532.51592 eV

One Electron Energy:        -1401.94222562 Eh          -38148.78741 eV
Two Electron Energy:          573.88745221 Eh           15616.27149 eV

Virial components:
Potential Energy   :         -766.95862798 Eh          -20870.00528 eV
Kinetic Energy     :          383.23614879 Eh           10428.38578 eV
Virial Ratio       :            2.00126901


---------------
SCF CONVERGENCE
---------------

  Last Energy change         ...   -3.9865e-09  Tolerance :   1.0000e-08
  Last MAX-Density change    ...    8.2997e-06  Tolerance :   1.0000e-07
  Last RMS-Density change    ...    2.5353e-07  Tolerance :   5.0000e-09
  Last Orbital Gradient      ...    2.3834e-06  Tolerance :   1.0000e-05
  Last Orbital Rotation      ...    8.4483e-06  Tolerance :   1.0000e-05

             **** THE GBW FILE WAS UPDATED (dsgdb9nsd_041775.gbw) ****
             **** DENSITY FILE WAS UPDATED (dsgdb9nsd_041775.scfp.tmp) ****
             **** ENERGY FILE WAS UPDATED (dsgdb9nsd_041775.en.tmp) ****
----------------
ORBITAL ENERGIES
----------------

  NO   OCC          E(Eh)            E(eV) 
   0   2.0000     -20.546528      -559.0994 
   1   2.0000     -11.280280      -306.9520 
   2   2.0000     -11.274459      -306.7936 
   3   2.0000     -11.236797      -305.7688 
   4   2.0000     -11.235354      -305.7295 
   5   2.0000     -11.232389      -305.6488 
   6   2.0000     -11.231098      -305.6137 
   7   2.0000     -11.223699      -305.4124 
   8   2.0000     -11.223480      -305.4064 
   9   2.0000      -1.371555       -37.3219 
  10   2.0000      -1.127450       -30.6795 
  11   2.0000      -1.060095       -28.8466 
  12   2.0000      -1.005528       -27.3618 
  13   2.0000      -0.977910       -26.6103 
  14   2.0000      -0.861163       -23.4334 
  15   2.0000      -0.826303       -22.4848 
  16   2.0000      -0.768228       -20.9046 
  17   2.0000      -0.704951       -19.1827 
  18   2.0000      -0.670957       -18.2577 
  19   2.0000      -0.655904       -17.8481 
  20   2.0000      -0.631470       -17.1832 
  21   2.0000      -0.617640       -16.8068 
  22   2.0000      -0.586517       -15.9599 
  23   2.0000      -0.566131       -15.4052 
  24   2.0000      -0.549827       -14.9616 
  25   2.0000      -0.539858       -14.6903 
  26   2.0000      -0.520105       -14.1528 
  27   2.0000      -0.497863       -13.5476 
  28   2.0000      -0.484219       -13.1763 
  29   2.0000      -0.451778       -12.2935 
  30   2.0000      -0.429200       -11.6791 
  31   2.0000      -0.354710        -9.6521 
  32   2.0000      -0.340239        -9.2584 
  33   0.0000       0.130881         3.5614 
  34   0.0000       0.152627         4.1532 
  35   0.0000       0.162245         4.4149 
  36   0.0000       0.166487         4.5303 
  37   0.0000       0.173527         4.7219 
  38   0.0000       0.184109         5.0099 
  39   0.0000       0.190197         5.1755 
  40   0.0000       0.202741         5.5169 
  41   0.0000       0.214115         5.8264 
  42   0.0000       0.220591         6.0026 
  43   0.0000       0.224950         6.1212 
  44   0.0000       0.234365         6.3774 
  45   0.0000       0.247837         6.7440 
  46   0.0000       0.272523         7.4157 
  47   0.0000       0.283541         7.7155 
  48   0.0000       0.297437         8.0937 
  49   0.0000       0.307684         8.3725 
  50   0.0000       0.328939         8.9509 
  51   0.0000       0.333542         9.0761 
  52   0.0000       0.350698         9.5430 
  53   0.0000       0.359603         9.7853 
  54   0.0000       0.370927        10.0934 
  55   0.0000       0.382108        10.3977 
  56   0.0000       0.392735        10.6869 
  57   0.0000       0.400872        10.9083 
  58   0.0000       0.425076        11.5669 
  59   0.0000       0.431595        11.7443 
  60   0.0000       0.456054        12.4098 
  61   0.0000       0.465460        12.6658 
  62   0.0000       0.474571        12.9137 
  63   0.0000       0.485387        13.2081 
  64   0.0000       0.503077        13.6894 
  65   0.0000       0.506721        13.7886 
  66   0.0000       0.513186        13.9645 
  67   0.0000       0.526134        14.3168 
  68   0.0000       0.531394        14.4600 
  69   0.0000       0.553285        15.0557 
  70   0.0000       0.566743        15.4219 
  71   0.0000       0.568766        15.4769 
  72   0.0000       0.573379        15.6024 
  73   0.0000       0.580133        15.7862 
  74   0.0000       0.587059        15.9747 
  75   0.0000       0.594774        16.1846 
  76   0.0000       0.600397        16.3376 
  77   0.0000       0.613919        16.7056 
  78   0.0000       0.617890        16.8136 
  79   0.0000       0.625621        17.0240 
  80   0.0000       0.634548        17.2669 
  81   0.0000       0.643584        17.5128 
  82   0.0000       0.655358        17.8332 
  83   0.0000       0.660270        17.9669 
  84   0.0000       0.678506        18.4631 
  85   0.0000       0.697528        18.9807 
  86   0.0000       0.708139        19.2694 
  87   0.0000       0.724337        19.7102 
  88   0.0000       0.731815        19.9137 
  89   0.0000       0.765195        20.8220 
  90   0.0000       0.775880        21.1128 
  91   0.0000       0.792940        21.5770 
  92   0.0000       0.818408        22.2700 
  93   0.0000       0.832075        22.6419 
  94   0.0000       0.841056        22.8863 
  95   0.0000       0.861952        23.4549 
  96   0.0000       0.886524        24.1235 
  97   0.0000       0.902092        24.5472 
  98   0.0000       0.917373        24.9630 
  99   0.0000       0.933989        25.4151 
 100   0.0000       0.952385        25.9157 
 101   0.0000       0.971802        26.4441 
 102   0.0000       0.993060        27.0225 
 103   0.0000       1.021022        27.7834 
 104   0.0000       1.035773        28.1848 
 105   0.0000       1.043012        28.3818 
 106   0.0000       1.072622        29.1875 
 107   0.0000       1.089408        29.6443 
 108   0.0000       1.116419        30.3793 
 109   0.0000       1.144263        31.1370 
 110   0.0000       1.153914        31.3996 
 111   0.0000       1.167812        31.7778 
 112   0.0000       1.186341        32.2820 
 113   0.0000       1.206245        32.8236 
 114   0.0000       1.213468        33.0202 
 115   0.0000       1.240753        33.7626 
 116   0.0000       1.254158        34.1274 
 117   0.0000       1.264614        34.4119 
 118   0.0000       1.296496        35.2795 
 119   0.0000       1.314258        35.7628 
 120   0.0000       1.326569        36.0978 
 121   0.0000       1.349116        36.7113 
 122   0.0000       1.353218        36.8229 
 123   0.0000       1.371471        37.3196 
 124   0.0000       1.389981        37.8233 
 125   0.0000       1.399915        38.0936 
 126   0.0000       1.404679        38.2233 
 127   0.0000       1.436912        39.1004 
 128   0.0000       1.446823        39.3700 
 129   0.0000       1.480176        40.2777 
 130   0.0000       1.487243        40.4699 
 131   0.0000       1.509914        41.0869 
 132   0.0000       1.529674        41.6246 
 133   0.0000       1.554170        42.2911 
 134   0.0000       1.565232        42.5921 
 135   0.0000       1.588065        43.2134 
 136   0.0000       1.613995        43.9190 
 137   0.0000       1.631962        44.4079 
 138   0.0000       1.689200        45.9655 
 139   0.0000       1.718869        46.7728 
 140   0.0000       1.734744        47.2048 
 141   0.0000       1.756771        47.8042 
 142   0.0000       1.776183        48.3324 
 143   0.0000       1.793615        48.8067 
 144   0.0000       1.818524        49.4846 
 145   0.0000       1.824731        49.6535 
 146   0.0000       1.842500        50.1370 
 147   0.0000       1.859041        50.5871 
 148   0.0000       1.874930        51.0194 
 149   0.0000       1.890640        51.4469 
 150   0.0000       1.900352        51.7112 
 151   0.0000       1.914575        52.0982 
 152   0.0000       1.925966        52.4082 
 153   0.0000       1.958249        53.2867 
 154   0.0000       1.971430        53.6453 
 155   0.0000       1.986600        54.0581 
 156   0.0000       2.032466        55.3062 
 157   0.0000       2.057465        55.9865 
 158   0.0000       2.069714        56.3198 
 159   0.0000       2.084111        56.7116 
 160   0.0000       2.111798        57.4650 
 161   0.0000       2.130873        57.9840 
 162   0.0000       2.153998        58.6133 
 163   0.0000       2.162876        58.8548 
 164   0.0000       2.181096        59.3506 
 165   0.0000       2.211383        60.1748 
 166   0.0000       2.217200        60.3331 
 167   0.0000       2.246975        61.1433 
 168   0.0000       2.271469        61.8098 
 169   0.0000       2.281625        62.0862 
 170   0.0000       2.320163        63.1348 
 171   0.0000       2.326714        63.3131 
 172   0.0000       2.338446        63.6323 
 173   0.0000       2.365934        64.3803 
 174   0.0000       2.384804        64.8938 
 175   0.0000       2.399484        65.2933 
 176   0.0000       2.431211        66.1566 
 177   0.0000       2.433668        66.2235 
 178   0.0000       2.463063        67.0233 
 179   0.0000       2.483247        67.5726 
 180   0.0000       2.505651        68.1822 
 181   0.0000       2.515781        68.4579 
 182   0.0000       2.540910        69.1417 
 183   0.0000       2.568917        69.9038 
 184   0.0000       2.605136        70.8894 
 185   0.0000       2.607433        70.9519 
 186   0.0000       2.630883        71.5900 
 187   0.0000       2.639898        71.8353 
 188   0.0000       2.667408        72.5839 
 189   0.0000       2.701546        73.5128 
 190   0.0000       2.721578        74.0579 
 191   0.0000       2.749897        74.8285 
 192   0.0000       2.765508        75.2533 
 193   0.0000       2.784964        75.7827 
 194   0.0000       2.793905        76.0260 
 195   0.0000       2.817668        76.6727 
 196   0.0000       2.838131        77.2295 
 197   0.0000       2.859670        77.8156 
 198   0.0000       2.871485        78.1371 
 199   0.0000       2.877952        78.3130 
 200   0.0000       2.889838        78.6365 
 201   0.0000       2.911482        79.2255 
 202   0.0000       2.920246        79.4639 
 203   0.0000       2.944699        80.1293 
 204   0.0000       2.950971        80.3000 
 205   0.0000       2.968885        80.7875 
 206   0.0000       2.997508        81.5663 
 207   0.0000       3.024017        82.2877 
 208   0.0000       3.033197        82.5375 
 209   0.0000       3.045715        82.8781 
 210   0.0000       3.049313        82.9760 
 211   0.0000       3.074940        83.6734 
 212   0.0000       3.080911        83.8359 
 213   0.0000       3.101375        84.3927 
 214   0.0000       3.116901        84.8152 
 215   0.0000       3.146598        85.6233 
 216   0.0000       3.164156        86.1011 
 217   0.0000       3.180236        86.5386 
 218   0.0000       3.194142        86.9170 
 219   0.0000       3.220795        87.6423 
 220   0.0000       3.250279        88.4446 
 221   0.0000       3.269845        88.9770 
 222   0.0000       3.286127        89.4201 
 223   0.0000       3.317776        90.2813 
 224   0.0000       3.332467        90.6810 
 225   0.0000       3.348240        91.1102 
 226   0.0000       3.356391        91.3320 
 227   0.0000       3.362205        91.4902 
 228   0.0000       3.372020        91.7573 
 229   0.0000       3.389289        92.2272 
 230   0.0000       3.405807        92.6767 
 231   0.0000       3.426398        93.2370 
 232   0.0000       3.435155        93.4753 
 233   0.0000       3.457508        94.0836 
 234   0.0000       3.465443        94.2995 
 235   0.0000       3.474794        94.5539 
 236   0.0000       3.488030        94.9141 
 237   0.0000       3.506988        95.4300 
 238   0.0000       3.531281        96.0910 
 239   0.0000       3.539733        96.3210 
 240   0.0000       3.560018        96.8730 
 241   0.0000       3.569846        97.1404 
 242   0.0000       3.582003        97.4712 
 243   0.0000       3.608376        98.1889 
 244   0.0000       3.616894        98.4207 
 245   0.0000       3.637233        98.9741 
 246   0.0000       3.645817        99.2077 
 247   0.0000       3.653850        99.4263 
 248   0.0000       3.671861        99.9164 
 249   0.0000       3.674352        99.9842 
 250   0.0000       3.700412       100.6933 
 251   0.0000       3.706821       100.8677 
 252   0.0000       3.721659       101.2715 
 253   0.0000       3.745227       101.9128 
 254   0.0000       3.765696       102.4698 
 255   0.0000       3.770534       102.6015 
 256   0.0000       3.781374       102.8964 
 257   0.0000       3.800699       103.4223 
 258   0.0000       3.825353       104.0932 
 259   0.0000       3.849764       104.7574 
 260   0.0000       3.863021       105.1181 
 261   0.0000       3.867969       105.2528 
 262   0.0000       3.893807       105.9559 
 263   0.0000       3.923241       106.7568 
 264   0.0000       3.945729       107.3688 
 265   0.0000       3.950402       107.4959 
 266   0.0000       4.008580       109.0790 
 267   0.0000       4.016433       109.2927 
 268   0.0000       4.043377       110.0259 
 269   0.0000       4.074876       110.8830 
 270   0.0000       4.078985       110.9948 
 271   0.0000       4.119046       112.0849 
 272   0.0000       4.123528       112.2069 
 273   0.0000       4.153829       113.0314 
 274   0.0000       4.196199       114.1844 
 275   0.0000       4.198669       114.2516 
 276   0.0000       4.233987       115.2126 
 277   0.0000       4.253901       115.7545 
 278   0.0000       4.275906       116.3533 
 279   0.0000       4.285512       116.6147 
 280   0.0000       4.360605       118.6581 
 281   0.0000       4.369524       118.9008 
 282   0.0000       4.377419       119.1156 
 283   0.0000       4.407439       119.9325 
 284   0.0000       4.436571       120.7252 
 285   0.0000       4.468395       121.5912 
 286   0.0000       4.478568       121.8680 
 287   0.0000       4.512103       122.7806 
 288   0.0000       4.545517       123.6898 
 289   0.0000       4.592971       124.9811 
 290   0.0000       4.608201       125.3955 
 291   0.0000       4.632422       126.0546 
 292   0.0000       4.652003       126.5874 
 293   0.0000       4.715568       128.3171 
 294   0.0000       4.747013       129.1728 
 295   0.0000       4.752401       129.3194 
 296   0.0000       4.775792       129.9559 
 297   0.0000       4.810124       130.8901 
 298   0.0000       4.830526       131.4453 
 299   0.0000       4.899687       133.3273 
 300   0.0000       4.941825       134.4739 
 301   0.0000       5.008482       136.2877 
 302   0.0000       5.036344       137.0459 
 303   0.0000       5.069862       137.9580 
 304   0.0000       5.092487       138.5736 
 305   0.0000       5.106904       138.9659 
 306   0.0000       5.143526       139.9625 
 307   0.0000       5.161961       140.4641 
 308   0.0000       5.209652       141.7618 
 309   0.0000       5.213777       141.8741 
 310   0.0000       5.312079       144.5490 
 311   0.0000       5.365817       146.0113 
 312   0.0000       5.379843       146.3930 
 313   0.0000       5.456731       148.4852 
 314   0.0000       5.500974       149.6891 
 315   0.0000       5.645516       153.6223 
 316   0.0000       5.673580       154.3860 
 317   0.0000       5.723253       155.7376 
 318   0.0000       5.905280       160.6908 
 319   0.0000       5.927938       161.3074 
 320   0.0000       6.254529       170.1944 
 321   0.0000       6.328158       172.1979 
 322   0.0000       6.376289       173.5077 
 323   0.0000       6.634774       180.5414 
 324   0.0000       6.670735       181.5199 
 325   0.0000       7.242431       197.0766 
 326   0.0000       7.351341       200.0402 
 327   0.0000       7.464225       203.1119 
 328   0.0000       7.769011       211.4055 
 329   0.0000       7.802289       212.3111 
 330   0.0000      23.240987       632.4194 
 331   0.0000      23.370841       635.9529 
 332   0.0000      23.562217       641.1605 
 333   0.0000      23.595556       642.0677 
 334   0.0000      23.661206       643.8541 
 335   0.0000      23.808525       647.8629 
 336   0.0000      23.989833       652.7966 
 337   0.0000      24.263950       660.2557 
 338   0.0000      45.821814      1246.8750 

                    ********************************
                    * MULLIKEN POPULATION ANALYSIS *
                    ********************************

-----------------------
MULLIKEN ATOMIC CHARGES
-----------------------
   0 C :    0.120330
   1 O :   -0.447809
   2 C :    0.382107
   3 C :   -0.287062
   4 C :   -0.193039
   5 C :   -0.055850
   6 C :   -0.192918
   7 C :   -0.113108
   8 C :   -0.221055
   9 H :    0.076384
  10 H :    0.086175
  11 H :    0.068778
  12 H :    0.123123
  13 H :    0.120423
  14 H :    0.094658
  15 H :    0.099914
  16 H :    0.107254
  17 H :    0.100379
  18 H :    0.131316
Sum of atomic charges:    0.0000000

--------------------------------
MULLIKEN REDUCED ORBITAL CHARGES
--------------------------------
  0 C s       :     3.112525  s :     3.112525
      pz      :     0.979249  p :     2.610409
      px      :     0.724399
      py      :     0.906762
      dz2     :     0.020133  d :     0.145408
      dxz     :     0.038914
      dyz     :     0.023176
      dx2y2   :     0.033089
      dxy     :     0.030095
      f0      :     0.001357  f :     0.011328
      f+1     :     0.001716
      f-1     :     0.001026
      f+2     :     0.001750
      f-2     :     0.000906
      f+3     :     0.002329
      f-3     :     0.002243
  1 O s       :     3.791492  s :     3.791492
      pz      :     1.780521  p :     4.615402
      px      :     1.304352
      py      :     1.530529
      dz2     :     0.004839  d :     0.038879
      dxz     :     0.004649
      dyz     :     0.005675
      dx2y2   :     0.011260
      dxy     :     0.012455
      f0      :     0.000324  f :     0.002037
      f+1     :     0.000302
      f-1     :     0.000182
      f+2     :     0.000255
      f-2     :     0.000266
      f+3     :     0.000387
      f-3     :     0.000320
  2 C s       :     2.921221  s :     2.921221
      pz      :     0.886638  p :     2.499382
      px      :     0.881162
      py      :     0.731582
      dz2     :     0.046156  d :     0.183854
      dxz     :     0.028767
      dyz     :     0.027136
      dx2y2   :     0.037680
      dxy     :     0.044114
      f0      :     0.001738  f :     0.013436
      f+1     :     0.001397
      f-1     :     0.001695
      f+2     :     0.001468
      f-2     :     0.002111
      f+3     :     0.002402
      f-3     :     0.002625
  3 C s       :     3.229005  s :     3.229005
      pz      :     0.966166  p :     2.947451
      px      :     0.989885
      py      :     0.991400
      dz2     :     0.015259  d :     0.102320
      dxz     :     0.012182
      dyz     :     0.017306
      dx2y2   :     0.032393
      dxy     :     0.025180
      f0      :     0.000863  f :     0.008286
      f+1     :     0.001117
      f-1     :     0.001346
      f+2     :     0.001309
      f-2     :     0.000676
      f+3     :     0.001623
      f-3     :     0.001352
  4 C s       :     3.165128  s :     3.165128
      pz      :     0.974018  p :     2.910640
      px      :     0.979800
      py      :     0.956823
      dz2     :     0.010350  d :     0.109062
      dxz     :     0.010881
      dyz     :     0.024824
      dx2y2   :     0.028189
      dxy     :     0.034818
      f0      :     0.000890  f :     0.008208
      f+1     :     0.000629
      f-1     :     0.001517
      f+2     :     0.001073
      f-2     :     0.000955
      f+3     :     0.001600
      f-3     :     0.001545
  5 C s       :     3.073847  s :     3.073847
      pz      :     0.986958  p :     2.868529
      px      :     0.938237
      py      :     0.943333
      dz2     :     0.026654  d :     0.107140
      dxz     :     0.017762
      dyz     :     0.014387
      dx2y2   :     0.018457
      dxy     :     0.029879
      f0      :     0.000973  f :     0.006334
      f+1     :     0.001135
      f-1     :     0.000384
      f+2     :     0.000647
      f-2     :     0.000862
      f+3     :     0.001358
      f-3     :     0.000975
  6 C s       :     3.169113  s :     3.169113
      pz      :     0.999415  p :     2.912013
      px      :     0.982502
      py      :     0.930096
      dz2     :     0.026909  d :     0.105472
      dxz     :     0.017568
      dyz     :     0.013157
      dx2y2   :     0.019192
      dxy     :     0.028647
      f0      :     0.000999  f :     0.006319
      f+1     :     0.001173
      f-1     :     0.000393
      f+2     :     0.000606
      f-2     :     0.000739
      f+3     :     0.001255
      f-3     :     0.001154
  7 C s       :     3.231403  s :     3.231403
      pz      :     0.913653  p :     2.727243
      px      :     0.948373
      py      :     0.865216
      dz2     :     0.017397  d :     0.143259
      dxz     :     0.021531
      dyz     :     0.021487
      dx2y2   :     0.033736
      dxy     :     0.049108
      f0      :     0.001103  f :     0.011203
      f+1     :     0.001734
      f-1     :     0.001301
      f+2     :     0.000707
      f-2     :     0.001500
      f+3     :     0.002504
      f-3     :     0.002354
  8 C s       :     3.138479  s :     3.138479
      pz      :     1.005234  p :     2.973518
      px      :     0.995894
      py      :     0.972390
      dz2     :     0.010152  d :     0.100340
      dxz     :     0.015904
      dyz     :     0.015257
      dx2y2   :     0.034253
      dxy     :     0.024774
      f0      :     0.000917  f :     0.008718
      f+1     :     0.001641
      f-1     :     0.000852
      f+2     :     0.001055
      f-2     :     0.000739
      f+3     :     0.001743
      f-3     :     0.001772
  9 H s       :     0.902562  s :     0.902562
      pz      :     0.007999  p :     0.021053
      px      :     0.007615
      py      :     0.005440
 10 H s       :     0.892617  s :     0.892617
      pz      :     0.013159  p :     0.021208
      px      :     0.002859
      py      :     0.005190
 11 H s       :     0.909566  s :     0.909566
      pz      :     0.015569  p :     0.021657
      px      :     0.003466
      py      :     0.002621
 12 H s       :     0.853401  s :     0.853401
      pz      :     0.004031  p :     0.023476
      px      :     0.007790
      py      :     0.011654
 13 H s       :     0.856404  s :     0.856404
      pz      :     0.006098  p :     0.023174
      px      :     0.013801
      py      :     0.003275
 14 H s       :     0.883192  s :     0.883192
      pz      :     0.013557  p :     0.022150
      px      :     0.004274
      py      :     0.004319
 15 H s       :     0.877990  s :     0.877990
      pz      :     0.004383  p :     0.022096
      px      :     0.007327
      py      :     0.010385
 16 H s       :     0.870703  s :     0.870703
      pz      :     0.004130  p :     0.022043
      px      :     0.008390
      py      :     0.009523
 17 H s       :     0.877482  s :     0.877482
      pz      :     0.013753  p :     0.022139
      px      :     0.004405
      py      :     0.003981
 18 H s       :     0.845398  s :     0.845398
      pz      :     0.005314  p :     0.023286
      px      :     0.010604
      py      :     0.007369


                     *******************************
                     * LOEWDIN POPULATION ANALYSIS *
                     *******************************

----------------------
LOEWDIN ATOMIC CHARGES
----------------------
   0 C :   -0.245587
   1 O :    0.119531
   2 C :   -0.218045
   3 C :   -0.132661
   4 C :   -0.155191
   5 C :   -0.216444
   6 C :   -0.188020
   7 C :   -0.138604
   8 C :   -0.135851
   9 H :    0.113125
  10 H :    0.115851
  11 H :    0.138347
  12 H :    0.138665
  13 H :    0.135651
  14 H :    0.135303
  15 H :    0.130026
  16 H :    0.133382
  17 H :    0.138590
  18 H :    0.131932

-------------------------------
LOEWDIN REDUCED ORBITAL CHARGES
-------------------------------
  0 C s       :     2.786569  s :     2.786569
      pz      :     1.020157  p :     2.843944
      px      :     0.817669
      py      :     1.006117
      dz2     :     0.074916  d :     0.541632
      dxz     :     0.127771
      dyz     :     0.087438
      dx2y2   :     0.124977
      dxy     :     0.126530
      f0      :     0.007484  f :     0.073442
      f+1     :     0.009498
      f-1     :     0.004818
      f+2     :     0.010958
      f-2     :     0.008299
      f+3     :     0.017130
      f-3     :     0.015254
  1 O s       :     3.287300  s :     3.287300
      pz      :     1.668232  p :     4.492588
      px      :     1.316281
      py      :     1.508076
      dz2     :     0.010006  d :     0.094393
      dxz     :     0.015795
      dyz     :     0.012018
      dx2y2   :     0.028240
      dxy     :     0.028334
      f0      :     0.000596  f :     0.006187
      f+1     :     0.000769
      f-1     :     0.000477
      f+2     :     0.000693
      f-2     :     0.000664
      f+3     :     0.001330
      f-3     :     0.001660
  2 C s       :     2.722204  s :     2.722204
      pz      :     0.970385  p :     2.758569
      px      :     0.948625
      py      :     0.839558
      dz2     :     0.159798  d :     0.649415
      dxz     :     0.094779
      dyz     :     0.093109
      dx2y2   :     0.147948
      dxy     :     0.153780
      f0      :     0.008420  f :     0.087857
      f+1     :     0.007673
      f-1     :     0.010024
      f+2     :     0.011606
      f-2     :     0.016383
      f+3     :     0.015528
      f-3     :     0.018223
  3 C s       :     2.778647  s :     2.778647
      pz      :     0.918145  p :     2.932465
      px      :     0.968413
      py      :     1.045908
      dz2     :     0.055627  d :     0.381837
      dxz     :     0.056318
      dyz     :     0.047386
      dx2y2   :     0.098211
      dxy     :     0.124295
      f0      :     0.003102  f :     0.039711
      f+1     :     0.004397
      f-1     :     0.004371
      f+2     :     0.006051
      f-2     :     0.004781
      f+3     :     0.007667
      f-3     :     0.009341
  4 C s       :     2.777585  s :     2.777585
      pz      :     0.906798  p :     2.937796
      px      :     0.966699
      py      :     1.064300
      dz2     :     0.032274  d :     0.399693
      dxz     :     0.044099
      dyz     :     0.082868
      dx2y2   :     0.136354
      dxy     :     0.104097
      f0      :     0.003922  f :     0.040117
      f+1     :     0.001278
      f-1     :     0.005198
      f+2     :     0.004318
      f-2     :     0.006971
      f+3     :     0.007270
      f-3     :     0.011160
  5 C s       :     2.768258  s :     2.768258
      pz      :     1.010368  p :     3.011939
      px      :     0.999810
      py      :     1.001762
      dz2     :     0.093222  d :     0.399129
      dxz     :     0.066840
      dyz     :     0.054668
      dx2y2   :     0.068778
      dxy     :     0.115621
      f0      :     0.004710  f :     0.037119
      f+1     :     0.005915
      f-1     :     0.003005
      f+2     :     0.004435
      f-2     :     0.005958
      f+3     :     0.005990
      f-3     :     0.007107
  6 C s       :     2.758908  s :     2.758908
      pz      :     1.008799  p :     2.997482
      px      :     0.995862
      py      :     0.992821
      dz2     :     0.097409  d :     0.393648
      dxz     :     0.063918
      dyz     :     0.049117
      dx2y2   :     0.070571
      dxy     :     0.112633
      f0      :     0.004512  f :     0.037982
      f+1     :     0.005896
      f-1     :     0.003240
      f+2     :     0.005116
      f-2     :     0.005636
      f+3     :     0.005692
      f-3     :     0.007890
  7 C s       :     2.712922  s :     2.712922
      pz      :     0.841815  p :     2.832662
      px      :     1.014378
      py      :     0.976469
      dz2     :     0.058228  d :     0.534313
      dxz     :     0.080460
      dyz     :     0.079712
      dx2y2   :     0.138177
      dxy     :     0.177736
      f0      :     0.004568  f :     0.058707
      f+1     :     0.004745
      f-1     :     0.005072
      f+2     :     0.006338
      f-2     :     0.008733
      f+3     :     0.014205
      f-3     :     0.015044
  8 C s       :     2.771823  s :     2.771823
      pz      :     0.930065  p :     2.942824
      px      :     1.018130
      py      :     0.994629
      dz2     :     0.030880  d :     0.376696
      dxz     :     0.045210
      dyz     :     0.066518
      dx2y2   :     0.117051
      dxy     :     0.117036
      f0      :     0.003853  f :     0.044509
      f+1     :     0.003849
      f-1     :     0.003061
      f+2     :     0.008452
      f-2     :     0.003485
      f+3     :     0.012916
      f-3     :     0.008894
  9 H s       :     0.831402  s :     0.831402
      pz      :     0.022348  p :     0.055473
      px      :     0.018847
      py      :     0.014278
 10 H s       :     0.828390  s :     0.828390
      pz      :     0.033153  p :     0.055759
      px      :     0.008775
      py      :     0.013831
 11 H s       :     0.808278  s :     0.808278
      pz      :     0.034250  p :     0.053375
      px      :     0.010694
      py      :     0.008431
 12 H s       :     0.801851  s :     0.801851
      pz      :     0.012384  p :     0.059484
      px      :     0.020142
      py      :     0.026958
 13 H s       :     0.805831  s :     0.805831
      pz      :     0.016394  p :     0.058518
      px      :     0.031797
      py      :     0.010328
 14 H s       :     0.807279  s :     0.807279
      pz      :     0.031692  p :     0.057418
      px      :     0.013289
      py      :     0.012436
 15 H s       :     0.812585  s :     0.812585
      pz      :     0.014102  p :     0.057389
      px      :     0.019293
      py      :     0.023994
 16 H s       :     0.809271  s :     0.809271
      pz      :     0.013329  p :     0.057347
      px      :     0.021428
      py      :     0.022590
 17 H s       :     0.804351  s :     0.804351
      pz      :     0.031801  p :     0.057059
      px      :     0.013596
      py      :     0.011662
 18 H s       :     0.807483  s :     0.807483
      pz      :     0.015606  p :     0.060585
      px      :     0.025514
      py      :     0.019466


                      *****************************
                      * MAYER POPULATION ANALYSIS *
                      *****************************

  NA   - Mulliken gross atomic population
  ZA   - Total nuclear charge
  QA   - Mulliken gross atomic charge
  VA   - Mayer's total valence
  BVA  - Mayer's bonded valence
  FA   - Mayer's free valence

  ATOM       NA         ZA         QA         VA         BVA        FA
  0 C      5.8797     6.0000     0.1203     3.9626     3.9626     0.0000
  1 O      8.4478     8.0000    -0.4478     1.8821     1.8821     0.0000
  2 C      5.6179     6.0000     0.3821     3.8190     3.8190     0.0000
  3 C      6.2871     6.0000    -0.2871     4.0271     4.0271    -0.0000
  4 C      6.1930     6.0000    -0.1930     3.9067     3.9067    -0.0000
  5 C      6.0559     6.0000    -0.0559     3.8445     3.8445     0.0000
  6 C      6.1929     6.0000    -0.1929     3.9856     3.9856    -0.0000
  7 C      6.1131     6.0000    -0.1131     3.8766     3.8766    -0.0000
  8 C      6.2211     6.0000    -0.2211     3.9519     3.9519     0.0000
  9 H      0.9236     1.0000     0.0764     0.9622     0.9622     0.0000
 10 H      0.9138     1.0000     0.0862     0.9600     0.9600    -0.0000
 11 H      0.9312     1.0000     0.0688     0.9669     0.9669    -0.0000
 12 H      0.8769     1.0000     0.1231     0.9791     0.9791    -0.0000
 13 H      0.8796     1.0000     0.1204     0.9695     0.9695     0.0000
 14 H      0.9053     1.0000     0.0947     0.9765     0.9765     0.0000
 15 H      0.9001     1.0000     0.0999     0.9728     0.9728    -0.0000
 16 H      0.8927     1.0000     0.1073     0.9750     0.9750    -0.0000
 17 H      0.8996     1.0000     0.1004     0.9709     0.9709    -0.0000
 18 H      0.8687     1.0000     0.1313     0.9738     0.9738     0.0000

  Mayer bond orders larger than 0.1
B(  0-C ,  1-O ) :   0.9494 B(  0-C ,  8-C ) :   1.0375 B(  0-C ,  9-H ) :   0.9746 
B(  0-C , 10-H ) :   0.9754 B(  1-O ,  2-C ) :   0.9295 B(  2-C ,  3-C ) :   0.9526 
B(  2-C ,  7-C ) :   0.9637 B(  2-C , 11-H ) :   0.9651 B(  3-C ,  4-C ) :   1.9906 
B(  3-C , 12-H ) :   0.9777 B(  4-C ,  5-C ) :   0.9623 B(  4-C , 13-H ) :   0.9709 
B(  5-C ,  6-C ) :   0.9898 B(  5-C , 14-H ) :   0.9622 B(  5-C , 15-H ) :   0.9926 
B(  6-C ,  7-C ) :   0.9450 B(  6-C , 16-H ) :   0.9941 B(  6-C , 17-H ) :   0.9847 
B(  7-C ,  8-C ) :   1.9525 B(  8-C , 18-H ) :   0.9497 

-------
TIMINGS
-------

Total SCF time: 0 days 0 hours 2 min 31 sec 

Total time                  ....     151.555 sec
Sum of individual times     ....     156.268 sec  (103.1%)

Fock matrix formation       ....     150.097 sec  ( 99.0%)
Diagonalization             ....       0.676 sec  (  0.4%)
Density matrix formation    ....       0.041 sec  (  0.0%)
Population analysis         ....       0.169 sec  (  0.1%)
Initial guess               ....       3.283 sec  (  2.2%)
Orbital Transformation      ....       0.000 sec  (  0.0%)
Orbital Orthonormalization  ....       0.000 sec  (  0.0%)
DIIS solution               ....       0.202 sec  (  0.1%)
SOSCF solution              ....       0.232 sec  (  0.2%)

   <<< Auxbasis replaced with dsgdb9nsd_041775.AUXC.tmp (Dim=834) >>> 


------------------------------------------------------------------------------
                              ORCA MP2 CALCULATION
------------------------------------------------------------------------------

Freezing NCore=18 chemical core electrons

   <<< Use J-auxbasis for calculation of Separable RI-J derivative contributions dsgdb9nsd_041775.AUXJ.tmp (Dim=857) >>> 


---------------------
RI-MP2 ENERGY+DENSITY
---------------------
Dimension of the basis                    ...  339
Memory devoted to MP2                     ... 2000 MB   
Data format for buffers                   ... DOUBLE
Compression type for matrix containers    ... UNCOMPRESSED
Overall scaling of the MP2 energy         ...   1.000e+00 Eh
Calculating two index integrals           ... done (    0.020 sec)
Cholesky decomposition of V**-1           ... done (    0.135 sec)

-----------------
RI-TRANSFORMATION (AUX index driven)
-----------------

Dimension of the orbital-basis         ... 339
Dimension of the aux-basis             ... 834
Transformation of internal MOs         ...    0-  32
Transformation of internal/external MOs...    0-  32 to   33- 338
Number Format for Storage              ... Double (8 Byte)
Integral mode                          ... Direct

First Phase: integral generation and transformation of MO indices
  Aux angular momentum 0               ... done (    0.984 sec)
  Aux angular momentum 1               ... done (    1.346 sec)
  Aux angular momentum 2               ... done (    1.422 sec)
  Aux angular momentum 3               ... done (    1.074 sec)
  Aux angular momentum 4               ... done (    0.481 sec)
Closing buffer VIJ ( 0.00 GB; CompressionRatio= 1.94)
Closing buffer VIA ( 0.06 GB; CompressionRatio= 1.00)
  Phase 1 completed in     5.411 sec
Second Phase: sorting and transformation of aux index

IJ-Transformation
Memory available                       ... 1986 MB 
Max. # MO pairs treated in a batch     ... 33    
# of internal orbitals                 ... 33
# batches for internal orbitals        ... 1
Closing buffer IJV ( 0.00 GB; CompressionRatio= 1.00)
(ij|v) transformation done in     0.231 sec

IA-Transformation
Memory available                       ... 1986 MB 
Max. # MO pairs treated in a batch     ... 33    
# of internal orbitals                 ... 33
# batches for internal orbitals        ... 1
Closing buffer IAV ( 0.06 GB; CompressionRatio= 1.00)
(ia|v) transformation done in     1.504 sec

  Phase 2 completed in     1.888 sec
RI-Integral transformation completed in     7.300 sec
Opening buffers                              ... done
Frozen core precalculation                   ... done

Starting loop over batches of integrals:

Operator 0  - window                       ... (  9- 32)x( 33-338)
Operator 0  - Memory available             ...  2000 MB
Operator 0  - Memory needed per MO         ...   3.9 MB
Operator 0  - Number of orbitals per batch ... 24
Operator 0  - Number of batches            ... 1

OPERATOR  0   PASS   0:  MOs     9 ...   32
  Reading integrals       ... ok
  Internal MO  11
  Internal MO  14
  Internal MO  17
  Internal MO  20
  Internal MO  23
  Internal MO  26
  Internal MO  29
  Internal MO  32
Time spent in pair loops =    39.868 sec
Deleting buffer (Ka|jb)[aa] ...done

-----------------------------------------------
 RI-MP2 CORRELATION ENERGY:     -1.496556629 Eh
-----------------------------------------------


---------------------
MP2 DENSITY FORMATION
---------------------

Completing the external part of the density      ... done
Storing the unrelaxed density                    ... done

Calculating G(D)                                 ... done
Completing the Lagrangian                        ... done
Solving the Z-vector equations                   ... 

------------------------------------------------------------------------------
                           ORCA CP-SCF CALCULATION
------------------------------------------------------------------------------

Input orbitals are from        ... dsgdb9nsd_041775.gbw
Input Perturbation             ... dsgdb9nsd_041775.pin.tmp
Wavefunction output            ... dsgdb9nsd_041775.pout.tmp
Perturbation mode              ... Real perturbation
Solver                         ... POPLE
Max. number of iterations      ... 128
Convergence tolerance          ... 1.000e-08
Integral handling              ... Direct
Number of perturbations        ... 1
Number of operators            ... 1
Orbital ranges used for CP-SCF:
 Operator 0:  Orbitals   0... 32  to  33...338
Variables per vector in CP-SCF ... 10098
Number of vectors sought       ... 1
     CP-SCF ITERATION   0: 
     CP-SCF ITERATION   1:      0.000912916
     CP-SCF ITERATION   2:      0.000114143
     CP-SCF ITERATION   3:      0.000009459
     CP-SCF ITERATION   4:      0.000000973
     CP-SCF ITERATION   5:      0.000000164
     CP-SCF ITERATION   6:      0.000000021
     CP-SCF ITERATION   7:      0.000000003
done
Finalizing the relaxed density                   ... done
Transforming P to the AO basis                   ... done
Storing the relaxed density                      ... done

                *********************************************
                * UNRELAXED MP2 DENSITY POPULATION ANALYSIS *
                *********************************************

------------------------------------------------------------------------------
                           ORCA POPULATION ANALYSIS
------------------------------------------------------------------------------
Input electron density              ... dsgdb9nsd_041775.pmp2ur
BaseName (.gbw .S,...)              ... dsgdb9nsd_041775

                    ********************************
                    * MULLIKEN POPULATION ANALYSIS *
                    ********************************

-----------------------
MULLIKEN ATOMIC CHARGES
-----------------------
   0 C :    0.104340
   1 O :   -0.427797
   2 C :    0.364320
   3 C :   -0.289908
   4 C :   -0.195954
   5 C :   -0.064468
   6 C :   -0.201106
   7 C :   -0.113280
   8 C :   -0.222458
   9 H :    0.079619
  10 H :    0.089520
  11 H :    0.072996
  12 H :    0.127188
  13 H :    0.124461
  14 H :    0.098551
  15 H :    0.103657
  16 H :    0.111021
  17 H :    0.104419
  18 H :    0.134879
Sum of atomic charges:    0.0000000

--------------------------------
MULLIKEN REDUCED ORBITAL CHARGES
--------------------------------
  0 C s       :     3.110989  s :     3.110989
      pz      :     0.975532  p :     2.604189
      px      :     0.726762
      py      :     0.901895
      dz2     :     0.024237  d :     0.165539
      dxz     :     0.043260
      dyz     :     0.028315
      dx2y2   :     0.035366
      dxy     :     0.034361
      f0      :     0.001888  f :     0.014942
      f+1     :     0.002231
      f-1     :     0.001514
      f+2     :     0.002316
      f-2     :     0.001438
      f+3     :     0.002871
      f-3     :     0.002684
  1 O s       :     3.785373  s :     3.785373
      pz      :     1.763757  p :     4.569544
      px      :     1.291346
      py      :     1.514440
      dz2     :     0.010779  d :     0.068048
      dxz     :     0.010733
      dyz     :     0.011531
      dx2y2   :     0.016937
      dxy     :     0.018068
      f0      :     0.000706  f :     0.004833
      f+1     :     0.000687
      f-1     :     0.000579
      f+2     :     0.000654
      f-2     :     0.000665
      f+3     :     0.000803
      f-3     :     0.000739
  2 C s       :     2.922009  s :     2.922009
      pz      :     0.883143  p :     2.492456
      px      :     0.877196
      py      :     0.732117
      dz2     :     0.050386  d :     0.203867
      dxz     :     0.033409
      dyz     :     0.032003
      dx2y2   :     0.041385
      dxy     :     0.046685
      f0      :     0.002254  f :     0.017347
      f+1     :     0.002071
      f-1     :     0.002272
      f+2     :     0.001980
      f-2     :     0.002639
      f+3     :     0.002870
      f-3     :     0.003262
  3 C s       :     3.227338  s :     3.227338
      pz      :     0.958698  p :     2.926243
      px      :     0.982236
      py      :     0.985309
      dz2     :     0.019919  d :     0.124375
      dxz     :     0.016934
      dyz     :     0.021582
      dx2y2   :     0.036012
      dxy     :     0.029927
      f0      :     0.001275  f :     0.011952
      f+1     :     0.001573
      f-1     :     0.001791
      f+2     :     0.001764
      f-2     :     0.001269
      f+3     :     0.002193
      f-3     :     0.002086
  4 C s       :     3.163489  s :     3.163489
      pz      :     0.966905  p :     2.889882
      px      :     0.974435
      py      :     0.948543
      dz2     :     0.014979  d :     0.130709
      dxz     :     0.016209
      dyz     :     0.028642
      dx2y2   :     0.032602
      dxy     :     0.038278
      f0      :     0.001313  f :     0.011875
      f+1     :     0.001075
      f-1     :     0.001950
      f+2     :     0.001577
      f-2     :     0.001510
      f+3     :     0.002153
      f-3     :     0.002296
  5 C s       :     3.071613  s :     3.071613
      pz      :     0.981226  p :     2.850874
      px      :     0.932240
      py      :     0.937409
      dz2     :     0.031553  d :     0.131729
      dxz     :     0.022353
      dyz     :     0.020356
      dx2y2   :     0.023440
      dxy     :     0.034027
      f0      :     0.001526  f :     0.010252
      f+1     :     0.001696
      f-1     :     0.000931
      f+2     :     0.001160
      f-2     :     0.001472
      f+3     :     0.001852
      f-3     :     0.001613
  6 C s       :     3.167502  s :     3.167502
      pz      :     0.993082  p :     2.893199
      px      :     0.975973
      py      :     0.924144
      dz2     :     0.031756  d :     0.130162
      dxz     :     0.022231
      dyz     :     0.019280
      dx2y2   :     0.023817
      dxy     :     0.033078
      f0      :     0.001555  f :     0.010243
      f+1     :     0.001737
      f-1     :     0.000941
      f+2     :     0.001135
      f-2     :     0.001341
      f+3     :     0.001753
      f-3     :     0.001781
  7 C s       :     3.229370  s :     3.229370
      pz      :     0.908223  p :     2.704867
      px      :     0.940159
      py      :     0.856484
      dz2     :     0.021516  d :     0.163874
      dxz     :     0.025897
      dyz     :     0.026401
      dx2y2   :     0.038353
      dxy     :     0.051707
      f0      :     0.001546  f :     0.015169
      f+1     :     0.002157
      f-1     :     0.001759
      f+2     :     0.001297
      f-2     :     0.002095
      f+3     :     0.003180
      f-3     :     0.003136
  8 C s       :     3.136466  s :     3.136466
      pz      :     0.996694  p :     2.950405
      px      :     0.988206
      py      :     0.965506
      dz2     :     0.014914  d :     0.123166
      dxz     :     0.020513
      dyz     :     0.020500
      dx2y2   :     0.037761
      dxy     :     0.029478
      f0      :     0.001349  f :     0.012420
      f+1     :     0.002069
      f-1     :     0.001281
      f+2     :     0.001624
      f-2     :     0.001273
      f+3     :     0.002499
      f-3     :     0.002326
  9 H s       :     0.896155  s :     0.896155
      pz      :     0.009008  p :     0.024225
      px      :     0.008682
      py      :     0.006535
 10 H s       :     0.886138  s :     0.886138
      pz      :     0.014032  p :     0.024341
      px      :     0.004020
      py      :     0.006289
 11 H s       :     0.902177  s :     0.902177
      pz      :     0.016418  p :     0.024827
      px      :     0.004601
      py      :     0.003808
 12 H s       :     0.846296  s :     0.846296
      pz      :     0.005155  p :     0.026516
      px      :     0.008809
      py      :     0.012553
 13 H s       :     0.849271  s :     0.849271
      pz      :     0.007187  p :     0.026268
      px      :     0.014684
      py      :     0.004397
 14 H s       :     0.876196  s :     0.876196
      pz      :     0.014453  p :     0.025253
      px      :     0.005378
      py      :     0.005422
 15 H s       :     0.871118  s :     0.871118
      pz      :     0.005477  p :     0.025224
      px      :     0.008387
      py      :     0.011360
 16 H s       :     0.863824  s :     0.863824
      pz      :     0.005228  p :     0.025156
      px      :     0.009407
      py      :     0.010521
 17 H s       :     0.870342  s :     0.870342
      pz      :     0.014641  p :     0.025239
      px      :     0.005500
      py      :     0.005097
 18 H s       :     0.838798  s :     0.838798
      pz      :     0.006406  p :     0.026323
      px      :     0.011544
      py      :     0.008373


                     *******************************
                     * LOEWDIN POPULATION ANALYSIS *
                     *******************************

----------------------
LOEWDIN ATOMIC CHARGES
----------------------
   0 C :   -0.253892
   1 O :    0.132746
   2 C :   -0.224591
   3 C :   -0.135193
   4 C :   -0.157071
   5 C :   -0.220014
   6 C :   -0.192032
   7 C :   -0.139223
   8 C :   -0.138416
   9 H :    0.114617
  10 H :    0.117456
  11 H :    0.139752
  12 H :    0.140431
  13 H :    0.137375
  14 H :    0.137088
  15 H :    0.131795
  16 H :    0.135112
  17 H :    0.140296
  18 H :    0.133764

-------------------------------
LOEWDIN REDUCED ORBITAL CHARGES
-------------------------------
  0 C s       :     2.785717  s :     2.785717
      pz      :     1.013810  p :     2.827776
      px      :     0.816184
      py      :     0.997783
      dz2     :     0.079846  d :     0.561431
      dxz     :     0.131510
      dyz     :     0.091640
      dx2y2   :     0.128887
      dxy     :     0.129547
      f0      :     0.008237  f :     0.078968
      f+1     :     0.010255
      f-1     :     0.005696
      f+2     :     0.011720
      f-2     :     0.008973
      f+3     :     0.017822
      f-3     :     0.016265
  1 O s       :     3.284442  s :     3.284442
      pz      :     1.652614  p :     4.448113
      px      :     1.302910
      py      :     1.492590
      dz2     :     0.016436  d :     0.125356
      dxz     :     0.021950
      dyz     :     0.018165
      dx2y2   :     0.034338
      dxy     :     0.034467
      f0      :     0.001024  f :     0.009343
      f+1     :     0.001195
      f-1     :     0.000895
      f+2     :     0.001137
      f-2     :     0.001118
      f+3     :     0.001838
      f-3     :     0.002136
  2 C s       :     2.721547  s :     2.721547
      pz      :     0.963514  p :     2.740258
      px      :     0.940845
      py      :     0.835899
      dz2     :     0.163404  d :     0.668563
      dxz     :     0.099528
      dyz     :     0.097570
      dx2y2   :     0.151031
      dxy     :     0.157029
      f0      :     0.009575  f :     0.094222
      f+1     :     0.008591
      f-1     :     0.010747
      f+2     :     0.012366
      f-2     :     0.017118
      f+3     :     0.016844
      f-3     :     0.018981
  3 C s       :     2.776167  s :     2.776167
      pz      :     0.909770  p :     2.905043
      px      :     0.959232
      py      :     1.036040
      dz2     :     0.060752  d :     0.407799
      dxz     :     0.061610
      dyz     :     0.053119
      dx2y2   :     0.103388
      dxy     :     0.128930
      f0      :     0.003815  f :     0.046185
      f+1     :     0.005104
      f-1     :     0.005257
      f+2     :     0.007072
      f-2     :     0.005609
      f+3     :     0.008981
      f-3     :     0.010348
  4 C s       :     2.774981  s :     2.774981
      pz      :     0.899324  p :     2.910933
      px      :     0.958623
      py      :     1.052986
      dz2     :     0.038211  d :     0.424600
      dxz     :     0.049555
      dyz     :     0.087251
      dx2y2   :     0.140533
      dxy     :     0.109050
      f0      :     0.004638  f :     0.046557
      f+1     :     0.001906
      f-1     :     0.006148
      f+2     :     0.005307
      f-2     :     0.007723
      f+3     :     0.008692
      f-3     :     0.012142
  5 C s       :     2.766616  s :     2.766616
      pz      :     1.002134  p :     2.985673
      px      :     0.990570
      py      :     0.992969
      dz2     :     0.098068  d :     0.424551
      dxz     :     0.072341
      dyz     :     0.059876
      dx2y2   :     0.073925
      dxy     :     0.120341
      f0      :     0.005587  f :     0.043174
      f+1     :     0.006775
      f-1     :     0.003805
      f+2     :     0.005240
      f-2     :     0.006764
      f+3     :     0.007082
      f-3     :     0.007919
  6 C s       :     2.757358  s :     2.757358
      pz      :     1.000345  p :     2.970825
      px      :     0.986642
      py      :     0.983839
      dz2     :     0.102252  d :     0.419691
      dxz     :     0.069655
      dyz     :     0.054527
      dx2y2   :     0.076017
      dxy     :     0.117240
      f0      :     0.005425  f :     0.044158
      f+1     :     0.006752
      f-1     :     0.004052
      f+2     :     0.005991
      f-2     :     0.006402
      f+3     :     0.006784
      f-3     :     0.008752
  7 C s       :     2.710385  s :     2.710385
      pz      :     0.835778  p :     2.805454
      px      :     1.003667
      py      :     0.966009
      dz2     :     0.063897  d :     0.557426
      dxz     :     0.085097
      dyz     :     0.084116
      dx2y2   :     0.142771
      dxy     :     0.181545
      f0      :     0.005365  f :     0.065957
      f+1     :     0.005743
      f-1     :     0.005862
      f+2     :     0.007210
      f-2     :     0.009711
      f+3     :     0.015716
      f-3     :     0.016350
  8 C s       :     2.769406  s :     2.769406
      pz      :     0.921108  p :     2.914480
      px      :     1.008401
      py      :     0.984971
      dz2     :     0.037263  d :     0.403623
      dxz     :     0.051413
      dyz     :     0.070961
      dx2y2   :     0.122227
      dxy     :     0.121759
      f0      :     0.004571  f :     0.050907
      f+1     :     0.004747
      f-1     :     0.003781
      f+2     :     0.009243
      f-2     :     0.004383
      f+3     :     0.013872
      f-3     :     0.010309
  9 H s       :     0.824409  s :     0.824409
      pz      :     0.024141  p :     0.060974
      px      :     0.020958
      py      :     0.015875
 10 H s       :     0.821372  s :     0.821372
      pz      :     0.035498  p :     0.061172
      px      :     0.010291
      py      :     0.015382
 11 H s       :     0.801069  s :     0.801069
      pz      :     0.037073  p :     0.059179
      px      :     0.012169
      py      :     0.009937
 12 H s       :     0.794886  s :     0.794886
      pz      :     0.013664  p :     0.064683
      px      :     0.021917
      py      :     0.029103
 13 H s       :     0.798793  s :     0.798793
      pz      :     0.017922  p :     0.063832
      px      :     0.034236
      py      :     0.011674
 14 H s       :     0.799995  s :     0.799995
      pz      :     0.034296  p :     0.062917
      px      :     0.014738
      py      :     0.013883
 15 H s       :     0.805323  s :     0.805323
      pz      :     0.015513  p :     0.062882
      px      :     0.021131
      py      :     0.026238
 16 H s       :     0.802075  s :     0.802075
      pz      :     0.014709  p :     0.062813
      px      :     0.023376
      py      :     0.024727
 17 H s       :     0.797120  s :     0.797120
      pz      :     0.034432  p :     0.062584
      px      :     0.015050
      py      :     0.013101
 18 H s       :     0.800491  s :     0.800491
      pz      :     0.016990  p :     0.065744
      px      :     0.027566
      py      :     0.021188


                      *****************************
                      * MAYER POPULATION ANALYSIS *
                      *****************************

  NA   - Mulliken gross atomic population
  ZA   - Total nuclear charge
  QA   - Mulliken gross atomic charge
  VA   - Mayer's total valence
  BVA  - Mayer's bonded valence
  FA   - Mayer's free valence

  ATOM       NA         ZA         QA         VA         BVA        FA
  0 C      5.8957     6.0000     0.1043     4.0539     3.7512     0.3027
  1 O      8.4278     8.0000    -0.4278     2.1786     1.7464     0.4322
  2 C      5.6357     6.0000     0.3643     3.9033     3.5831     0.3202
  3 C      6.2899     6.0000    -0.2899     4.1369     3.7607     0.3762
  4 C      6.1960     6.0000    -0.1960     4.0156     3.6435     0.3722
  5 C      6.0645     6.0000    -0.0645     3.9506     3.6366     0.3140
  6 C      6.2011     6.0000    -0.2011     4.0963     3.7743     0.3220
  7 C      6.1133     6.0000    -0.1133     3.9735     3.5909     0.3826
  8 C      6.2225     6.0000    -0.2225     4.0644     3.6874     0.3771
  9 H      0.9204     1.0000     0.0796     0.9721     0.9194     0.0527
 10 H      0.9105     1.0000     0.0895     0.9694     0.9180     0.0514
 11 H      0.9270     1.0000     0.0730     0.9768     0.9222     0.0546
 12 H      0.8728     1.0000     0.1272     0.9868     0.9378     0.0490
 13 H      0.8755     1.0000     0.1245     0.9774     0.9282     0.0492
 14 H      0.9014     1.0000     0.0986     0.9855     0.9328     0.0527
 15 H      0.8963     1.0000     0.1037     0.9817     0.9297     0.0520
 16 H      0.8890     1.0000     0.1110     0.9834     0.9326     0.0508
 17 H      0.8956     1.0000     0.1044     0.9795     0.9278     0.0517
 18 H      0.8651     1.0000     0.1349     0.9814     0.9325     0.0489

  Mayer bond orders larger than 0.1
B(  0-C ,  1-O ) :   0.8859 B(  0-C ,  8-C ) :   0.9775 B(  0-C ,  9-H ) :   0.9345 
B(  0-C , 10-H ) :   0.9355 B(  1-O ,  2-C ) :   0.8650 B(  2-C ,  3-C ) :   0.8935 
B(  2-C ,  7-C ) :   0.9021 B(  2-C , 11-H ) :   0.9239 B(  3-C ,  4-C ) :   1.8322 
B(  3-C , 12-H ) :   0.9391 B(  4-C ,  5-C ) :   0.9034 B(  4-C , 13-H ) :   0.9324 
B(  5-C ,  6-C ) :   0.9266 B(  5-C , 14-H ) :   0.9215 B(  5-C , 15-H ) :   0.9514 
B(  6-C ,  7-C ) :   0.8880 B(  6-C , 16-H ) :   0.9534 B(  6-C , 17-H ) :   0.9440 
B(  7-C ,  8-C ) :   1.7978 B(  8-C , 18-H ) :   0.9124 


                *******************************************
                * RELAXED MP2 DENSITY POPULATION ANALYSIS *
                *******************************************

------------------------------------------------------------------------------
                           ORCA POPULATION ANALYSIS
------------------------------------------------------------------------------
[...]
      f+1     :     0.002066
      f-1     :     0.002203
      f+2     :     0.001833
      f-2     :     0.002500
      f+3     :     0.002617
      f-3     :     0.003181
  3 C s       :     3.226267  s :     3.226267
      pz      :     0.956154  p :     2.894546
      px      :     0.968645
      py      :     0.969747
      dz2     :     0.017904  d :     0.109755
      dxz     :     0.016064
      dyz     :     0.017583
      dx2y2   :     0.030837
      dxy     :     0.027367
      f0      :     0.001176  f :     0.011260
      f+1     :     0.001545
      f-1     :     0.001661
      f+2     :     0.001596
      f-2     :     0.001257
      f+3     :     0.001980
      f-3     :     0.002045
  4 C s       :     3.174539  s :     3.174539
      pz      :     0.963124  p :     2.865376
      px      :     0.967365
      py      :     0.934888
      dz2     :     0.012619  d :     0.115703
      dxz     :     0.015398
      dyz     :     0.024770
      dx2y2   :     0.031197
      dxy     :     0.031719
      f0      :     0.001270  f :     0.011192
      f+1     :     0.001016
      f-1     :     0.001774
      f+2     :     0.001465
      f-2     :     0.001483
      f+3     :     0.001890
      f-3     :     0.002295
  5 C s       :     3.110342  s :     3.110342
      pz      :     0.999613  p :     2.903182
      px      :     0.940560
      py      :     0.963009
      dz2     :     0.028299  d :     0.119445
      dxz     :     0.018927
      dyz     :     0.019984
      dx2y2   :     0.021603
      dxy     :     0.030632
      f0      :     0.001461  f :     0.009722
      f+1     :     0.001625
      f-1     :     0.000860
      f+2     :     0.001053
      f-2     :     0.001466
      f+3     :     0.001636
      f-3     :     0.001621
  6 C s       :     3.194037  s :     3.194037
      pz      :     1.010897  p :     2.935505
      px      :     0.985534
      py      :     0.939074
      dz2     :     0.028293  d :     0.118999
      dxz     :     0.019007
      dyz     :     0.019478
      dx2y2   :     0.021721
      dxy     :     0.030501
      f0      :     0.001489  f :     0.009752
      f+1     :     0.001669
      f-1     :     0.000877
      f+2     :     0.001053
      f-2     :     0.001343
      f+3     :     0.001572
      f-3     :     0.001750
  7 C s       :     3.206253  s :     3.206253
      pz      :     0.919422  p :     2.662834
      px      :     0.907373
      py      :     0.836040
      dz2     :     0.019214  d :     0.148585
      dxz     :     0.022959
      dyz     :     0.026056
      dx2y2   :     0.035272
      dxy     :     0.045084
      f0      :     0.001493  f :     0.014415
      f+1     :     0.001985
      f-1     :     0.001650
      f+2     :     0.001296
      f-2     :     0.002030
      f+3     :     0.002894
      f-3     :     0.003068
  8 C s       :     3.179740  s :     3.179740
      pz      :     1.002312  p :     2.932833
      px      :     0.976723
      py      :     0.953798
      dz2     :     0.012612  d :     0.109519
      dxz     :     0.017507
      dyz     :     0.020166
      dx2y2   :     0.031299
      dxy     :     0.027935
      f0      :     0.001318  f :     0.011756
      f+1     :     0.001895
      f-1     :     0.001161
      f+2     :     0.001618
      f-2     :     0.001215
      f+3     :     0.002503
      f-3     :     0.002047
  9 H s       :     0.878353  s :     0.878353
      pz      :     0.008495  p :     0.023157
      px      :     0.008174
      py      :     0.006489
 10 H s       :     0.867487  s :     0.867487
      pz      :     0.012792  p :     0.023248
      px      :     0.004182
      py      :     0.006273
 11 H s       :     0.887172  s :     0.887172
      pz      :     0.014788  p :     0.023683
      px      :     0.004838
      py      :     0.004056
 12 H s       :     0.848194  s :     0.848194
      pz      :     0.005296  p :     0.025159
      px      :     0.008311
      py      :     0.011552
 13 H s       :     0.851651  s :     0.851651
      pz      :     0.007023  p :     0.024970
      px      :     0.013348
      py      :     0.004598
 14 H s       :     0.854050  s :     0.854050
      pz      :     0.013117  p :     0.024210
      px      :     0.005484
      py      :     0.005609
 15 H s       :     0.851309  s :     0.851309
      pz      :     0.005602  p :     0.024239
      px      :     0.008078
      py      :     0.010560
 16 H s       :     0.846486  s :     0.846486
      pz      :     0.005364  p :     0.024139
      px      :     0.008908
      py      :     0.009867
 17 H s       :     0.849628  s :     0.849628
      pz      :     0.013301  p :     0.024189
      px      :     0.005596
      py      :     0.005292
 18 H s       :     0.843554  s :     0.843554
      pz      :     0.006374  p :     0.025099
      px      :     0.010736
      py      :     0.007988


                     *******************************
                     * LOEWDIN POPULATION ANALYSIS *
                     *******************************

----------------------
LOEWDIN ATOMIC CHARGES
----------------------
   0 C :   -0.282867
   1 O :    0.168592
   2 C :   -0.252449
   3 C :   -0.141746
   4 C :   -0.161997
   5 C :   -0.238862
   6 C :   -0.211175
   7 C :   -0.148800
   8 C :   -0.141030
   9 H :    0.122986
  10 H :    0.126296
  11 H :    0.147913
  12 H :    0.145924
  13 H :    0.143409
  14 H :    0.147544
  15 H :    0.141915
  16 H :    0.143903
  17 H :    0.150253
  18 H :    0.140192

-------------------------------
LOEWDIN REDUCED ORBITAL CHARGES
-------------------------------
  0 C s       :     2.794213  s :     2.794213
      pz      :     1.027665  p :     2.858242
      px      :     0.825463
      py      :     1.005114
      dz2     :     0.077238  d :     0.553047
      dxz     :     0.131609
      dyz     :     0.089860
      dx2y2   :     0.124829
      dxy     :     0.129510
      f0      :     0.007961  f :     0.077365
      f+1     :     0.009878
      f-1     :     0.005561
      f+2     :     0.011488
      f-2     :     0.008743
      f+3     :     0.017706
      f-3     :     0.016027
  1 O s       :     3.290208  s :     3.290208
      pz      :     1.633846  p :     4.404365
      px      :     1.295220
      py      :     1.475299
      dz2     :     0.016789  d :     0.127248
      dxz     :     0.022688
      dyz     :     0.018363
      dx2y2   :     0.034684
      dxy     :     0.034724
      f0      :     0.001044  f :     0.009586
      f+1     :     0.001207
      f-1     :     0.000907
      f+2     :     0.001172
      f-2     :     0.001157
      f+3     :     0.001904
      f-3     :     0.002194
  2 C s       :     2.730627  s :     2.730627
      pz      :     0.972726  p :     2.763133
      px      :     0.946663
      py      :     0.843744
      dz2     :     0.161697  d :     0.665886
      dxz     :     0.099878
      dyz     :     0.099424
      dx2y2   :     0.150455
      dxy     :     0.154433
      f0      :     0.009165  f :     0.092803
      f+1     :     0.008454
      f-1     :     0.010346
      f+2     :     0.012268
      f-2     :     0.017140
      f+3     :     0.016634
      f-3     :     0.018795
  3 C s       :     2.782357  s :     2.782357
      pz      :     0.917149  p :     2.914309
      px      :     0.959819
      py      :     1.037341
      dz2     :     0.058442  d :     0.398932
      dxz     :     0.061092
      dyz     :     0.050644
      dx2y2   :     0.102376
      dxy     :     0.126378
      f0      :     0.003898  f :     0.046148
      f+1     :     0.005045
      f-1     :     0.005279
      f+2     :     0.007022
      f-2     :     0.005713
      f+3     :     0.008843
      f-3     :     0.010348
  4 C s       :     2.780153  s :     2.780153
      pz      :     0.905374  p :     2.919058
      px      :     0.962734
      py      :     1.050950
      dz2     :     0.036233  d :     0.416324
      dxz     :     0.048781
      dyz     :     0.084789
      dx2y2   :     0.139577
      dxy     :     0.106944
      f0      :     0.004672  f :     0.046463
      f+1     :     0.001901
      f-1     :     0.006176
      f+2     :     0.005232
      f-2     :     0.007814
      f+3     :     0.008452
      f-3     :     0.012215
  5 C s       :     2.772575  s :     2.772575
      pz      :     1.011930  p :     3.010102
      px      :     0.996166
      py      :     1.002006
      dz2     :     0.094236  d :     0.413284
      dxz     :     0.069242
      dyz     :     0.059659
      dx2y2   :     0.073666
      dxy     :     0.116481
      f0      :     0.005484  f :     0.042902
      f+1     :     0.006718
      f-1     :     0.003755
      f+2     :     0.005217
      f-2     :     0.006850
      f+3     :     0.006901
      f-3     :     0.007978
  6 C s       :     2.763385  s :     2.763385
      pz      :     1.009938  p :     2.994073
      px      :     0.992567
      py      :     0.991568
      dz2     :     0.097862  d :     0.409715
      dxz     :     0.066370
      dyz     :     0.056175
      dx2y2   :     0.075105
      dxy     :     0.114204
      f0      :     0.005356  f :     0.044002
      f+1     :     0.006698
      f-1     :     0.003986
      f+2     :     0.006126
      f-2     :     0.006472
      f+3     :     0.006627
      f-3     :     0.008736
  7 C s       :     2.715011  s :     2.715011
      pz      :     0.854621  p :     2.815900
      px      :     0.999992
      py      :     0.961287
      dz2     :     0.061384  d :     0.551872
      dxz     :     0.080897
      dyz     :     0.085521
      dx2y2   :     0.143139
      dxy     :     0.180930
      f0      :     0.005407  f :     0.066018
      f+1     :     0.005605
      f-1     :     0.005870
      f+2     :     0.007368
      f-2     :     0.009719
      f+3     :     0.015589
      f-3     :     0.016459
  8 C s       :     2.776294  s :     2.776294
      pz      :     0.921099  p :     2.916557
      px      :     1.008804
      py      :     0.986653
      dz2     :     0.035704  d :     0.396946
      dxz     :     0.049819
      dyz     :     0.070464
      dx2y2   :     0.120384
      dxy     :     0.120575
      f0      :     0.004627  f :     0.051234
      f+1     :     0.004897
      f-1     :     0.003792
      f+2     :     0.009419
      f-2     :     0.004370
      f+3     :     0.014064
      f-3     :     0.010065
  9 H s       :     0.814843  s :     0.814843
      pz      :     0.024322  p :     0.062171
      px      :     0.021504
      py      :     0.016346
 10 H s       :     0.811496  s :     0.811496
      pz      :     0.035453  p :     0.062208
      px      :     0.010896
      py      :     0.015859
 11 H s       :     0.791460  s :     0.791460
      pz      :     0.037058  p :     0.060628
      px      :     0.012948
      py      :     0.010621
 12 H s       :     0.788889  s :     0.788889
      pz      :     0.014124  p :     0.065187
      px      :     0.022018
      py      :     0.029045
 13 H s       :     0.792214  s :     0.792214
      pz      :     0.018170  p :     0.064377
      px      :     0.033790
      py      :     0.012417
 14 H s       :     0.788405  s :     0.788405
      pz      :     0.034242  p :     0.064051
      px      :     0.015292
      py      :     0.014517
 15 H s       :     0.793975  s :     0.793975
      pz      :     0.016036  p :     0.064111
      px      :     0.021584
      py      :     0.026491
 16 H s       :     0.792059  s :     0.792059
      pz      :     0.015254  p :     0.064038
      px      :     0.023704
      py      :     0.025080
 17 H s       :     0.785993  s :     0.785993
      pz      :     0.034418  p :     0.063754
      px      :     0.015596
      py      :     0.013740
 18 H s       :     0.793387  s :     0.793387
      pz      :     0.017284  p :     0.066421
      px      :     0.027693
      py      :     0.021444


                      *****************************
                      * MAYER POPULATION ANALYSIS *
                      *****************************

  NA   - Mulliken gross atomic population
  ZA   - Total nuclear charge
  QA   - Mulliken gross atomic charge
  VA   - Mayer's total valence
  BVA  - Mayer's bonded valence
  FA   - Mayer's free valence

  ATOM       NA         ZA         QA         VA         BVA        FA
  0 C      5.9820     6.0000     0.0180     4.0829     3.7839     0.2990
  1 O      8.3439     8.0000    -0.3439     2.2964     1.8746     0.4218
  2 C      5.7786     6.0000     0.2214     4.0316     3.7151     0.3165
  3 C      6.2418     6.0000    -0.2418     4.1181     3.7506     0.3676
  4 C      6.1668     6.0000    -0.1668     4.0152     3.6512     0.3639
  5 C      6.1427     6.0000    -0.1427     3.9729     3.6617     0.3113
  6 C      6.2583     6.0000    -0.2583     4.0789     3.7611     0.3178
  7 C      6.0321     6.0000    -0.0321     3.9629     3.5931     0.3698
  8 C      6.2338     6.0000    -0.2338     4.0840     3.7142     0.3698
  9 H      0.9015     1.0000     0.0985     0.9596     0.9082     0.0514
 10 H      0.8907     1.0000     0.1093     0.9579     0.9076     0.0503
 11 H      0.9109     1.0000     0.0891     0.9641     0.9112     0.0530
 12 H      0.8734     1.0000     0.1266     0.9816     0.9332     0.0484
 13 H      0.8766     1.0000     0.1234     0.9733     0.9246     0.0487
 14 H      0.8783     1.0000     0.1217     0.9739     0.9223     0.0516
 15 H      0.8755     1.0000     0.1245     0.9717     0.9207     0.0510
 16 H      0.8706     1.0000     0.1294     0.9735     0.9236     0.0499
 17 H      0.8738     1.0000     0.1262     0.9710     0.9204     0.0506
 18 H      0.8687     1.0000     0.1313     0.9790     0.9307     0.0483

  Mayer bond orders larger than 0.1
B(  0-C ,  1-O ) :   0.9422 B(  0-C ,  8-C ) :   0.9831 B(  0-C ,  9-H ) :   0.9141 
B(  0-C , 10-H ) :   0.9162 B(  1-O ,  2-C ) :   0.9072 B(  2-C ,  3-C ) :   0.9270 
B(  2-C ,  7-C ) :   0.9355 B(  2-C , 11-H ) :   0.8992 B(  3-C ,  4-C ) :   1.7935 
B(  3-C , 12-H ) :   0.9297 B(  4-C ,  5-C ) :   0.9298 B(  4-C , 13-H ) :   0.9232 
B(  5-C ,  6-C ) :   0.9332 B(  5-C , 14-H ) :   0.9059 B(  5-C , 15-H ) :   0.9293 
B(  6-C ,  7-C ) :   0.9083 B(  6-C , 16-H ) :   0.9346 B(  6-C , 17-H ) :   0.9243 
B(  7-C ,  8-C ) :   1.7550 B(  8-C , 18-H ) :   0.9115 


-------
TIMINGS
-------

Total time                :  997.304 sec
Integral trafo            :    7.311 sec (  0.7%)
FC preparation            :    3.745 sec (  0.4%)
I/O of integrals          :    0.060 sec (  0.0%)
K(i,j) Operators          :    9.010 sec (  0.9%)
T(i,j) pair energies      :    0.946 sec (  0.1%)
V-calculation             :    0.020 sec (  0.0%)
V**(-1/2)                 :    0.135 sec (  0.0%)
Gamma(ia|P)               :    8.691 sec (  0.9%)
Gamma-Trafo               :    1.464 sec (  0.1%)
D(virtual)                :    3.368 sec (  0.3%)
D(internal)               :    4.293 sec (  0.4%)
W(virtual)                :    0.000 sec (  0.0%)
W(internal)               :    0.000 sec (  0.0%)
L(virtual)                :   11.483 sec (  1.2%)
L(internal)               :    0.226 sec (  0.0%)
G(D)                      :  121.982 sec ( 12.2%)
G(Z)                      :    0.000 sec (  0.0%)
Z-Vector Solution         :  823.806 sec ( 82.6%)
3-Index Derivative        :    0.000 sec (  0.0%)
2-Index Derivative        :    0.000 sec (  0.0%)
Separable Gradient (RIJ)  :    0.000 sec (  0.0%)
Separable Gradient (X)    :    0.000 sec (  0.0%)


---------------------------------------
MP2 TOTAL ENERGY:     -385.219035810 Eh
---------------------------------------

-------------------------   --------------------
FINAL SINGLE POINT ENERGY      -385.219035810115
-------------------------   --------------------


                            ***************************************
                            *     ORCA property calculations      *
                            ***************************************

                                    ---------------------
                                    Active property flags
                                    ---------------------
   (+) Dipole Moment


------------------------------------------------------------------------------
                       ORCA ELECTRIC PROPERTIES CALCULATION
------------------------------------------------------------------------------

Dipole Moment Calculation                       ... on
Quadrupole Moment Calculation                   ... off
Polarizability Calculation                      ... off
GBWName                                         ... dsgdb9nsd_041775.gbw
Electron density file                           ... dsgdb9nsd_041775.scfp.tmp

-------------
DIPOLE MOMENT
-------------
                                X             Y             Z
Electronic contribution:     -0.58235       3.55129       0.62736
Nuclear contribution   :      0.43484      -4.38773      -0.64996
                        -----------------------------------------
Total Dipole Moment    :     -0.14751      -0.83644      -0.02259
                        -----------------------------------------
Magnitude (a.u.)       :      0.84965
Magnitude (Debye)      :      2.15965


                         *** MP2 UNRELAXED DENSITY ***

------------------------------------------------------------------------------
                       ORCA ELECTRIC PROPERTIES CALCULATION
------------------------------------------------------------------------------

Dipole Moment Calculation                       ... on
Quadrupole Moment Calculation                   ... off
Polarizability Calculation                      ... off
GBWName                                         ... dsgdb9nsd_041775.gbw
Electron density file                           ... dsgdb9nsd_041775.pmp2ur

-------------
DIPOLE MOMENT
-------------
                                X             Y             Z
Electronic contribution:     -0.57674       3.57301       0.62375
Nuclear contribution   :      0.43484      -4.38773      -0.64996
                        -----------------------------------------
Total Dipole Moment    :     -0.14190      -0.81472      -0.02620
                        -----------------------------------------
Magnitude (a.u.)       :      0.82740
Magnitude (Debye)      :      2.10308


                           *** MP2 RELAXED DENSITY ***

------------------------------------------------------------------------------
                       ORCA ELECTRIC PROPERTIES CALCULATION
------------------------------------------------------------------------------

Dipole Moment Calculation                       ... on
Quadrupole Moment Calculation                   ... off
Polarizability Calculation                      ... off
GBWName                                         ... dsgdb9nsd_041775.gbw
Electron density file                           ... dsgdb9nsd_041775.pmp2re

-------------
DIPOLE MOMENT
-------------
                                X             Y             Z
Electronic contribution:     -0.57879       3.60304       0.60903
Nuclear contribution   :      0.43484      -4.38773      -0.64996
                        -----------------------------------------
Total Dipole Moment    :     -0.14395      -0.78470      -0.04093
                        -----------------------------------------
Magnitude (a.u.)       :      0.79884
Magnitude (Debye)      :      2.03049


Timings for individual modules:

Sum of individual times         ...     1152.924 sec (=  19.215 min)
GTO integral calculation        ...        0.552 sec (=   0.009 min)   0.0 %
SCF iterations                  ...      154.912 sec (=   2.582 min)  13.4 %
MP2 module                      ...      997.460 sec (=  16.624 min)  86.5 %
                             ****ORCA TERMINATED NORMALLY****
TOTAL RUN TIME: 0 days 0 hours 19 minutes 13 seconds 492 msec
