
                                 *****************
                                 * O   R   C   A *
                                 *****************

           --- An Ab Initio, DFT and Semiempirical electronic structure package ---

                  #######################################################
                  #                        -***-                        #
                  #  Department of molecular theory and spectroscopy    #
                  #              Directorship: Frank Neese              #
                  # Max Planck Institute for Chemical Energy Conversion #
                  #                  D-45470 Muelheim/Ruhr              #
                  #                       Germany                       #
                  #                                                     #
                  #                  All rights reserved                #
                  #                        -***-                        #
                  #######################################################


                         Program Version 3.0.3 - RELEASE   -


 With contributions from (in alphabetic order):
   Ute Becker             : Parallelization
   Dmytro Bykov           : SCF Hessian
   Dmitry Ganyushin       : Spin-Orbit,Spin-Spin,Magnetic field MRCI
   Andreas Hansen         : Spin unrestricted coupled pair/coupled cluster methods
   Dimitrios Liakos       : Extrapolation schemes; parallel MDCI
   Robert Izsak           : Overlap fitted RIJCOSX, COSX-SCS-MP3
   Christian Kollmar      : KDIIS, OOCD, Brueckner-CCSD(T), CCSD density
   Simone Kossmann        : Meta GGA functionals, TD-DFT gradient, OOMP2, MP2 Hessian
   Taras Petrenko         : DFT Hessian,TD-DFT gradient, ASA and ECA modules, normal mode analysis, Resonance Raman, ABS, FL, XAS/XES, NRVS
   Christoph Reimann      : Effective Core Potentials
   Michael Roemelt        : Restricted open shell CIS
   Christoph Riplinger    : Improved optimizer, TS searches, QM/MM, DLPNO-CCSD
   Barbara Sandhoefer     : DKH picture change effects
   Igor Schapiro          : Molecular dynamics
   Kantharuban Sivalingam : CASSCF convergence, NEVPT2
   Boris Wezisla          : Elementary symmetry handling
   Frank Wennmohs         : Technical directorship


 We gratefully acknowledge several colleagues who have allowed us to
 interface, adapt or use parts of their codes:
   Stefan Grimme, W. Hujo, H. Kruse, T. Risthaus : VdW corrections, initial TS optimization,
                                                   DFT functionals, gCP
   Ed Valeev                                     : LibInt (2-el integral package), F12 methods
   Garnet Chan, S. Sharma, R. Olivares           : DMRG
   Ulf Ekstrom                                   : XCFun DFT Library
   Mihaly Kallay                                 : mrcc  (arbitrary order and MRCC methods)
   Andreas Klamt, Michael Diedenhofen            : otool_cosmo (COSMO solvation model)
   Frank Weinhold                                : gennbo (NPA and NBO analysis)
   Christopher J. Cramer and Donald G. Truhlar   : smd solvation model


 Your calculation uses the libint2 library for the computation of 2-el integrals
 For citations please refer to: http://libint.valeyev.net

 This ORCA versions uses:
   CBLAS   interface :  Fast vector & matrix operations
   LAPACKE interface :  Fast linear algebra routines
   SCALAPACK package :  Parallel linear algebra routines


Your calculation utilizes the basis: Ahlrichs-TZV
Cite in your paper:
H - Kr: A. Schaefer, H. Horn and R. Ahlrichs, J. Chem. Phys. 97, 2571 (1992).

The def2-TZV basis will be loaded
Cite in your paper:
 	F. Weigend, R. Ahlrichs, Phys. Chem. Chem. Phys. 2005, 7, 3297.

================================================================================
                                        WARNINGS
                       Please study these warnings very carefully!
================================================================================
Now building the actual basis set


INFO   : the flag for use of LIBINT has been found!

================================================================================
                                       INPUT FILE
================================================================================
NAME = dsgdb9nsd_080367.inp
|  1> ! RI-MP2 RIJK def2-TZVP def2-TZVP/C def2-TZVP/JK TIGHTSCF
|  2> % maxcore 2000
|  3> % mp2 density relaxed end
|  4> *xyz 0 1
|  5>  C       -0.1383696027     1.5358960269     0.1031668409 
|  6>  C        0.0547916443     0.0472593258    -0.0762860320 
|  7>  C        0.6279315103    -0.6631073101    -1.2383420166 
|  8>  N        1.3243127925    -0.6876662289     0.1217229801 
|  9>  C        2.4242089083     0.1494632322    -0.4693085957 
| 10>  C        1.8228123914     0.0271726361    -1.9142679957 
| 11>  N        2.4850417445    -0.9019405166    -2.8248873185 
| 12>  C        1.5760677435     1.2786404377    -2.6406302387 
| 13>  N        1.4070675186     2.2853166974    -3.1830203859 
| 14>  H        0.5757474308     2.1507071739    -0.4447287038 
| 15>  H       -1.1367863135     1.8135975061    -0.2486183673 
| 16>  H       -0.0749514072     1.7939848223     1.1656547681 
| 17>  H       -0.7441836586    -0.5285183293     0.3895218851 
| 18>  H        0.1758614132    -1.5464458765    -1.6800741884 
| 19>  H        2.5227626884     1.1487725221    -0.0384836956 
| 20>  H        3.3798464927    -0.3734467967    -0.3929570573 
| 21>  H        3.3747089346    -0.5198923012    -3.1336634001 
| 22>  H        2.6818048989    -1.7689628513    -2.3320451588 
| 23> *
| 24> 
| 25>                          ****END OF INPUT****
================================================================================

                       ****************************
                       * Single Point Calculation *
                       ****************************

---------------------------------
CARTESIAN COORDINATES (ANGSTROEM)
---------------------------------
  C     -0.138370    1.535896    0.103167
  C      0.054792    0.047259   -0.076286
  C      0.627932   -0.663107   -1.238342
  N      1.324313   -0.687666    0.121723
  C      2.424209    0.149463   -0.469309
  C      1.822812    0.027173   -1.914268
  N      2.485042   -0.901941   -2.824887
  C      1.576068    1.278640   -2.640630
  N      1.407068    2.285317   -3.183020
  H      0.575747    2.150707   -0.444729
  H     -1.136786    1.813598   -0.248618
  H     -0.074951    1.793985    1.165655
  H     -0.744184   -0.528518    0.389522
  H      0.175861   -1.546446   -1.680074
  H      2.522763    1.148773   -0.038484
  H      3.379846   -0.373447   -0.392957
  H      3.374709   -0.519892   -3.133663
  H      2.681805   -1.768963   -2.332045

----------------------------
CARTESIAN COORDINATES (A.U.)
----------------------------
  NO LB      ZA    FRAG    MASS        X           Y           Z
   0 C     6.0000    0    12.011         -0.261480654362491          2.902422861018747          0.194957075402826
   1 C     6.0000    0    12.011          0.103541202154227          0.089307183035759         -0.144159708323553
   2 C     6.0000    0    12.011          1.186618585326552         -1.253091213490193         -2.340127271501764
   3 N     7.0000    0    14.007          2.502588493473482         -1.299500844167403          0.230023096593746
   4 C     6.0000    0    12.011          4.581090928099217          0.282444575948680         -0.886864718168173
   5 C     6.0000    0    12.011          3.444616213264073          0.051348840565702         -3.617442258803344
   6 N     7.0000    0    14.007          4.696048328466908         -1.704420565461454         -5.338263391152177
   7 C     6.0000    0    12.011          2.978336403722246          2.416280251010198         -4.990067972094103
   8 N     7.0000    0    14.007          2.658972262090147          4.318622687363384         -6.015036808039337
   9 H     1.0000    0     1.008          1.088004966520777          4.064247552930748         -0.840415454075783
  10 H     1.0000    0     1.008         -2.148214805304947          3.427202603691577         -0.469820626059643
  11 H     1.0000    0     1.008         -0.141637632960013          3.390140002558383          2.202768278408486
  12 H     1.0000    0     1.008         -1.406303308093551         -0.998754899134608          0.736089686007741
  13 H     1.0000    0     1.008          0.332329908472364         -2.922359187516806         -3.174880100746016
  14 H     1.0000    0     1.008          4.767330581950915          2.170865456942999         -0.072723645305190
  15 H     1.0000    0     1.008          6.386984245897273         -0.705712171353167         -0.742581220688601
  16 H     1.0000    0     1.008          6.377275668091165         -0.982454068402099         -5.921765622081498
  17 H     1.0000    0     1.008          5.067876803529370         -3.342855330037463         -4.406926682068896

--------------------------------
INTERNAL COORDINATES (ANGSTROEM)
--------------------------------
 C      0   0   0   0.000000     0.000     0.000
 C      1   0   0   1.511805     0.000     0.000
 C      2   1   0   1.477662   128.045     0.000
 N      2   1   3   1.480205   125.633    80.367
 C      4   2   1   1.503288   107.364   318.619
 C      3   2   1   1.536588   115.568    38.399
 N      6   3   2   1.459804   109.953   166.709
 C      6   3   2   1.467875   118.032   291.262
 N      8   6   3   1.155917   177.803   115.055
 H      1   2   3   1.090021   114.332   331.760
 H      1   2   3   1.094398   109.164    91.598
 H      1   2   3   1.095222   109.864   209.550
 H      2   1   3   1.089430   112.083   214.926
 H      3   2   1   1.086178   123.323   225.974
 H      5   4   2   1.092677   114.851    58.741
 H      5   4   2   1.092020   110.251   182.811
 H      7   6   3   1.016273   110.328   191.172
 H      7   6   3   1.016532   109.161   308.929

---------------------------
INTERNAL COORDINATES (A.U.)
---------------------------
 C      0   0   0   0.000000     0.000     0.000
 C      1   0   0   2.856897     0.000     0.000
 C      2   1   0   2.792376   128.045     0.000
 N      2   1   3   2.797182   125.633    80.367
 C      4   2   1   2.840803   107.364   318.619
 C      3   2   1   2.903730   115.568    38.399
 N      6   3   2   2.758629   109.953   166.709
 C      6   3   2   2.773882   118.032   291.262
 N      8   6   3   2.184367   177.803   115.055
 H      1   2   3   2.059841   114.332   331.760
 H      1   2   3   2.068112   109.164    91.598
 H      1   2   3   2.069671   109.864   209.550
 H      2   1   3   2.058725   112.083   214.926
 H      3   2   1   2.052578   123.323   225.974
 H      5   4   2   2.064859   114.851    58.741
 H      5   4   2   2.063619   110.251   182.811
 H      7   6   3   1.920478   110.328   191.172
 H      7   6   3   1.920967   109.161   308.929

---------------------
BASIS SET INFORMATION
---------------------
There are 3 groups of distinct atoms

 Group   1 Type C   : 11s6p2d1f contracted to 5s3p2d1f pattern {62111/411/11/1}
 Group   2 Type N   : 11s6p2d1f contracted to 5s3p2d1f pattern {62111/411/11/1}
 Group   3 Type H   : 5s1p contracted to 3s1p pattern {311/1}

Atom   0C    basis set group =>   1
Atom   1C    basis set group =>   1
Atom   2C    basis set group =>   1
Atom   3N    basis set group =>   2
Atom   4C    basis set group =>   1
Atom   5C    basis set group =>   1
Atom   6N    basis set group =>   2
Atom   7C    basis set group =>   1
Atom   8N    basis set group =>   2
Atom   9H    basis set group =>   3
Atom  10H    basis set group =>   3
Atom  11H    basis set group =>   3
Atom  12H    basis set group =>   3
Atom  13H    basis set group =>   3
Atom  14H    basis set group =>   3
Atom  15H    basis set group =>   3
Atom  16H    basis set group =>   3
Atom  17H    basis set group =>   3
-------------------------------
AUXILIARY BASIS SET INFORMATION
-------------------------------
There are 3 groups of distinct atoms

 Group   1 Type C   : 14s10p6d2f1g contracted to 10s8p5d1f1g pattern {5111111111/31111111/21111/2/1}
 Group   2 Type N   : 14s10p6d2f1g contracted to 10s8p4d2f1g pattern {5111111111/31111111/3111/11/1}
 Group   3 Type H   : 4s2p2d contracted to 2s2p2d pattern {31/11/11}

Atom   0C    basis set group =>   1
Atom   1C    basis set group =>   1
Atom   2C    basis set group =>   1
Atom   3N    basis set group =>   2
Atom   4C    basis set group =>   1
Atom   5C    basis set group =>   1
Atom   6N    basis set group =>   2
Atom   7C    basis set group =>   1
Atom   8N    basis set group =>   2
Atom   9H    basis set group =>   3
Atom  10H    basis set group =>   3
Atom  11H    basis set group =>   3
Atom  12H    basis set group =>   3
Atom  13H    basis set group =>   3
Atom  14H    basis set group =>   3
Atom  15H    basis set group =>   3
Atom  16H    basis set group =>   3
Atom  17H    basis set group =>   3
------------------------------------------------------------------------------
                           ORCA GTO INTEGRAL CALCULATION
                           -- RI-GTO INTEGRALS CHOSEN --
------------------------------------------------------------------------------

                         BASIS SET STATISTICS AND STARTUP INFO

Gaussian basis set:
 # of primitive gaussian shells          ...  234
 # of primitive gaussian functions       ...  486
 # of contracted shells                  ...  135
 # of contracted basis functions         ...  333
 Highest angular momentum                ...    3
 Maximum contraction depth               ...    6
Auxiliary gaussian basis set:
 # of primitive gaussian shells          ...  369
 # of primitive gaussian functions       ... 1053
 # of contracted shells                  ...  279
 # of contracted aux-basis functions     ...  843
 Highest angular momentum                ...    4
 Maximum contraction depth               ...    5
Ratio of auxiliary to basis functions    ...  2.53
Integral package used                  ... LIBINT
 One Electron integrals                  ... done
 Ordering auxiliary basis shells         ... done
 Integral threshhold             Thresh  ...  2.500e-11
 Primitive cut-off               TCut    ...  2.500e-12
 Pre-screening matrix                    ... done
 Shell pair data                         ... 
 Ordering of the shell pairs             ... done (   0.002 sec) 8546 of 9180 pairs
 Determination of significant pairs      ... done (   0.000 sec)
 Creation of shell pair data             ... done (   0.002 sec)
 Storage of shell pair data              ... done (   0.002 sec)
 Shell pair data done in (   0.005 sec)
 Computing two index integrals           ... done
 Cholesky decomposition of the V-matrix  ... done


Timings:
 Total evaluation time                   ...   0.386 sec (  0.006 min)
 One electron matrix time                ...   0.088 sec (  0.001 min) = 22.9%
 Schwartz matrix evaluation time         ...   0.211 sec (  0.004 min) = 54.7%
 Two index repulsion integral time       ...   0.021 sec (  0.000 min) =  5.4%
 Cholesky decomposition of V             ...   0.033 sec (  0.001 min) =  8.5%
 Three index repulsion integral time     ...   0.000 sec (  0.000 min) =  0.0%

-------------------------------------------------------------------------------
                                 ORCA SCF
-------------------------------------------------------------------------------

------------
SCF SETTINGS
------------
Hamiltonian:
 Ab initio Hamiltonian  Method          .... Hartree-Fock(GTOs)
 RI-approximation to the Coulomb term is turned on
   Number of auxiliary basis functions  .... 843
   RI-JK (J+K treated both via RI)      .... on


General Settings:
 Integral files         IntName         .... dsgdb9nsd_080367
 Hartree-Fock type      HFTyp           .... RHF
 Total Charge           Charge          ....    0
 Multiplicity           Mult            ....    1
 Number of Electrons    NEL             ....   66
 Basis Dimension        Dim             ....  333
 Nuclear Repulsion      ENuc            ....    441.1982396644 Eh

Convergence Acceleration:
 DIIS                   CNVDIIS         .... on
   Start iteration      DIISMaxIt       ....    12
   Startup error        DIISStart       ....  0.200000
   # of expansion vecs  DIISMaxEq       ....     5
   Bias factor          DIISBfac        ....   1.050
   Max. coefficient     DIISMaxC        ....  10.000
 Newton-Raphson         CNVNR           .... off
 SOSCF                  CNVSOSCF        .... on
   Start iteration      SOSCFMaxIt      ....   150
   Startup grad/error   SOSCFStart      ....  0.003300
 Level Shifting         CNVShift        .... on
   Level shift para.    LevelShift      ....    0.2500
   Turn off err/grad.   ShiftErr        ....    0.0010
 Zerner damping         CNVZerner       .... off
 Static damping         CNVDamp         .... on
   Fraction old density DampFac         ....    0.7000
   Max. Damping (<1)    DampMax         ....    0.9800
   Min. Damping (>=0)   DampMin         ....    0.0000
   Turn off err/grad.   DampErr         ....    0.1000
 Fernandez-Rico         CNVRico         .... off

SCF Procedure:
 Maximum # iterations   MaxIter         ....   125
 SCF integral mode      SCFMode         .... Direct
   Integral package                     .... LIBINT
 Reset frequeny         DirectResetFreq ....    20
 Integral Threshold     Thresh          ....  2.500e-11 Eh
 Primitive CutOff       TCut            ....  2.500e-12 Eh

Convergence Tolerance:
 Convergence Check Mode ConvCheckMode   .... Total+1el-Energy
 Energy Change          TolE            ....  1.000e-08 Eh
 1-El. energy change                    ....  1.000e-05 Eh
 Orbital Gradient       TolG            ....  1.000e-05
 Orbital Rotation angle TolX            ....  1.000e-05
 DIIS Error             TolErr          ....  5.000e-07


Diagonalization of the overlap matrix:
Smallest eigenvalue                        ... 4.796e-05
Time for diagonalization                   ...    0.031 sec
Threshold for overlap eigenvalues          ... 1.000e-08
Number of eigenvalues below threshold      ... 0
Time for construction of square roots      ...    0.016 sec
Total time needed                          ...    0.047 sec

-------------------
DFT GRID GENERATION
-------------------

General Integration Accuracy     IntAcc      ...  4.340
Radial Grid Type                 RadialGrid  ... Gauss-Chebyshev
Angular Grid (max. acc.)         AngularGrid ... Lebedev-110
Angular grid pruning method      GridPruning ... 3 (G Style)
Weight generation scheme         WeightScheme... Becke
Basis function cutoff            BFCut       ...    1.0000e-11
Integration weight cutoff        WCut        ...    1.0000e-14
Grids for H and He will be reduced by one unit

# of grid points (after initial pruning)     ...  22188 (   0.0 sec)
# of grid points (after weights+screening)   ...  20333 (   0.1 sec)
nearest neighbour list constructed           ...    0.0 sec
Grid point re-assignment to atoms done       ...    0.0 sec
Grid point division into batches done        ...    0.0 sec
Reduced shell lists constructed in    1.2 sec

Total number of grid points                  ...    20333
Total number of batches                      ...      327
Average number of points per batch           ...       62
Average number of grid points per atom       ...     1130
Average number of shells per batch           ...    93.74 (69.44%)
Average number of basis functions per batch  ...   238.67 (71.67%)
Average number of large shells per batch     ...    73.29 (78.18%)
Average number of large basis fcns per batch ...   183.06 (76.70%)
Average number of aux-shells per batch       ...    93.74 (33.60%)
Average number of aux functions per batch    ...   238.67 (  inf%)
Maximum spatial batch extension              ...  25.60, 21.28, 21.06 au
Average spatial batch extension              ...   3.60,  3.61,  3.60 au

Time for grid setup =    1.341 sec

------------------------------
INITIAL GUESS: MODEL POTENTIAL
------------------------------
Loading Hartree-Fock densities                     ... done
Calculating cut-offs                               ... done
Setting up the integral package                    ... done
Initializing the effective Hamiltonian             ... done
Starting the Coulomb interaction                   ... done (   0.7 sec)
Reading the grid                                   ... done
Mapping shells                                     ... done
Starting the XC term evaluation                    ... done (   0.7 sec)
Transforming the Hamiltonian                       ... done (   0.0 sec)
Diagonalizing the Hamiltonian                      ... done (   0.0 sec)
Back transforming the eigenvectors                 ... done (   0.0 sec)
Now organizing SCF variables                       ... done
                      ------------------
                      INITIAL GUESS DONE (   2.9 sec)
                      ------------------
--------------
SCF ITERATIONS
--------------
ITER       Energy         Delta-E        Max-DP      RMS-DP      [F,P]     Damp
  0   -395.4301266040   0.000000000000 0.04383018  0.00094844  0.2740833 0.7000
  1   -395.2931218154   0.137004788648 0.04490727  0.00101077  0.2744488 0.7000
                               ***Turning on DIIS***
  2   -395.3360174757  -0.042895660358 0.03627822  0.00074437  0.1706586 0.7000
  3   -396.2423755765  -0.906358100748 0.01546947  0.00040979  0.1180504 0.7000
  4   -395.6816803319   0.560695244558 0.04588626  0.00098198  0.0785973 0.0000
  5   -395.7108825227  -0.029202190839 0.01731913  0.00031532  0.0314098 0.0000
  6   -395.7347253188  -0.023842796093 0.00912920  0.00013540  0.0178851 0.0000
  7   -395.7523844986  -0.017659179803 0.00454005  0.00007498  0.0101528 0.0000
  8   -395.7613144102  -0.008929911542 0.00386509  0.00006508  0.0079794 0.0000
                      *** Initiating the SOSCF procedure ***
                           *** Shutting down DIIS ***
                      *** Re-Reading the Fockian *** 
                      *** Removing any level shift *** 
ITER      Energy       Delta-E        Grad      Rot      Max-DP    RMS-DP
  9   -395.83565888  -0.0743444692  0.000216  0.000216  0.001318  0.000016
 10   -395.83537500   0.0002838817  0.000120  0.000176  0.000849  0.000009
 11   -395.83537562  -0.0000006183  0.000066  0.000074  0.000542  0.000007
 12   -395.83537578  -0.0000001598  0.000015  0.000009  0.000170  0.000002
 13   -395.83537579  -0.0000000178  0.000003  0.000004  0.000063  0.000001
                 **** Energy Check signals convergence ****
              ***Rediagonalizing the Fockian in SOSCF/NRSCF***

               *****************************************************
               *                     SUCCESS                       *
               *           SCF CONVERGED AFTER  14 CYCLES          *
               *****************************************************


----------------
TOTAL SCF ENERGY
----------------

Total Energy       :         -395.83537580 Eh          -10771.22817 eV

Components:
Nuclear Repulsion  :          441.19823966 Eh           12005.61445 eV
Electronic Energy  :         -837.03361546 Eh          -22776.84263 eV

One Electron Energy:        -1410.83154983 Eh          -38390.67822 eV
Two Electron Energy:          573.79793437 Eh           15613.83559 eV

Virial components:
Potential Energy   :         -791.03868865 Eh          -21525.25704 eV
Kinetic Energy     :          395.20331285 Eh           10754.02887 eV
Virial Ratio       :            2.00159934


---------------
SCF CONVERGENCE
---------------

  Last Energy change         ...   -1.4408e-09  Tolerance :   1.0000e-08
  Last MAX-Density change    ...    1.0454e-05  Tolerance :   1.0000e-07
  Last RMS-Density change    ...    1.2444e-07  Tolerance :   5.0000e-09
  Last Orbital Gradient      ...    2.5117e-06  Tolerance :   1.0000e-05
  Last Orbital Rotation      ...    3.4269e-06  Tolerance :   1.0000e-05

             **** THE GBW FILE WAS UPDATED (dsgdb9nsd_080367.gbw) ****
             **** DENSITY FILE WAS UPDATED (dsgdb9nsd_080367.scfp.tmp) ****
             **** ENERGY FILE WAS UPDATED (dsgdb9nsd_080367.en.tmp) ****
----------------
ORBITAL ENERGIES
----------------

  NO   OCC          E(Eh)            E(eV) 
   0   2.0000     -15.580904      -423.9780 
   1   2.0000     -15.577225      -423.8778 
   2   2.0000     -15.576380      -423.8549 
   3   2.0000     -11.328767      -308.2714 
   4   2.0000     -11.286162      -307.1121 
   5   2.0000     -11.283346      -307.0354 
   6   2.0000     -11.281598      -306.9879 
   7   2.0000     -11.276121      -306.8388 
   8   2.0000     -11.234099      -305.6954 
   9   2.0000      -1.319126       -35.8952 
  10   2.0000      -1.232025       -33.5251 
  11   2.0000      -1.204642       -32.7800 
  12   2.0000      -1.034606       -28.1531 
  13   2.0000      -0.990356       -26.9490 
  14   2.0000      -0.958318       -26.0772 
  15   2.0000      -0.832840       -22.6627 
  16   2.0000      -0.796039       -21.6613 
  17   2.0000      -0.711214       -19.3531 
  18   2.0000      -0.704792       -19.1784 
  19   2.0000      -0.660855       -17.9828 
  20   2.0000      -0.633822       -17.2472 
  21   2.0000      -0.624146       -16.9839 
  22   2.0000      -0.597904       -16.2698 
  23   2.0000      -0.570257       -15.5175 
  24   2.0000      -0.559177       -15.2160 
  25   2.0000      -0.554532       -15.0896 
  26   2.0000      -0.529391       -14.4055 
  27   2.0000      -0.490162       -13.3380 
  28   2.0000      -0.468456       -12.7473 
  29   2.0000      -0.463206       -12.6045 
  30   2.0000      -0.446757       -12.1569 
  31   2.0000      -0.425183       -11.5698 
  32   2.0000      -0.385437       -10.4883 
  33   0.0000       0.121059         3.2942 
  34   0.0000       0.142851         3.8872 
  35   0.0000       0.151419         4.1203 
  36   0.0000       0.156350         4.2545 
  37   0.0000       0.177443         4.8285 
  38   0.0000       0.185111         5.0371 
  39   0.0000       0.196124         5.3368 
  40   0.0000       0.204156         5.5554 
  41   0.0000       0.212088         5.7712 
  42   0.0000       0.217330         5.9139 
  43   0.0000       0.223311         6.0766 
  44   0.0000       0.233510         6.3541 
  45   0.0000       0.237999         6.4763 
  46   0.0000       0.262488         7.1427 
  47   0.0000       0.277270         7.5449 
  48   0.0000       0.288490         7.8502 
  49   0.0000       0.300898         8.1878 
  50   0.0000       0.311729         8.4826 
  51   0.0000       0.342191         9.3115 
  52   0.0000       0.362816         9.8727 
  53   0.0000       0.365484         9.9453 
  54   0.0000       0.378105        10.2888 
  55   0.0000       0.401136        10.9155 
  56   0.0000       0.402314        10.9475 
  57   0.0000       0.419531        11.4160 
  58   0.0000       0.429667        11.6918 
  59   0.0000       0.440224        11.9791 
  60   0.0000       0.452141        12.3034 
  61   0.0000       0.457794        12.4572 
  62   0.0000       0.469289        12.7700 
  63   0.0000       0.480904        13.0861 
  64   0.0000       0.486926        13.2499 
  65   0.0000       0.504599        13.7308 
  66   0.0000       0.519192        14.1279 
  67   0.0000       0.542050        14.7499 
  68   0.0000       0.551133        14.9971 
  69   0.0000       0.557528        15.1711 
  70   0.0000       0.564599        15.3635 
  71   0.0000       0.576697        15.6927 
  72   0.0000       0.587231        15.9794 
  73   0.0000       0.589412        16.0387 
  74   0.0000       0.596715        16.2374 
  75   0.0000       0.611251        16.6330 
  76   0.0000       0.615656        16.7529 
  77   0.0000       0.623805        16.9746 
  78   0.0000       0.632629        17.2147 
  79   0.0000       0.650997        17.7145 
  80   0.0000       0.656505        17.8644 
  81   0.0000       0.664530        18.0828 
  82   0.0000       0.683731        18.6053 
  83   0.0000       0.689560        18.7639 
  84   0.0000       0.709312        19.3014 
  85   0.0000       0.713392        19.4124 
  86   0.0000       0.721174        19.6241 
  87   0.0000       0.732331        19.9277 
  88   0.0000       0.749228        20.3875 
  89   0.0000       0.764538        20.8041 
  90   0.0000       0.780075        21.2269 
  91   0.0000       0.787281        21.4230 
  92   0.0000       0.811245        22.0751 
  93   0.0000       0.839486        22.8436 
  94   0.0000       0.855127        23.2692 
  95   0.0000       0.880142        23.9499 
  96   0.0000       0.909168        24.7397 
  97   0.0000       0.928975        25.2787 
  98   0.0000       0.946013        25.7423 
  99   0.0000       0.975126        26.5345 
 100   0.0000       1.001029        27.2394 
 101   0.0000       1.015628        27.6366 
 102   0.0000       1.035195        28.1691 
 103   0.0000       1.067835        29.0573 
 104   0.0000       1.103848        30.0372 
 105   0.0000       1.105278        30.0761 
 106   0.0000       1.135896        30.9093 
 107   0.0000       1.150178        31.2979 
 108   0.0000       1.176513        32.0145 
 109   0.0000       1.200071        32.6556 
 110   0.0000       1.207656        32.8620 
 111   0.0000       1.242645        33.8141 
 112   0.0000       1.245231        33.8845 
 113   0.0000       1.279324        34.8122 
 114   0.0000       1.287417        35.0324 
 115   0.0000       1.322026        35.9742 
 116   0.0000       1.327368        36.1195 
 117   0.0000       1.347628        36.6708 
 118   0.0000       1.357623        36.9428 
 119   0.0000       1.368955        37.2512 
 120   0.0000       1.384293        37.6685 
 121   0.0000       1.405936        38.2575 
 122   0.0000       1.436655        39.0934 
 123   0.0000       1.441414        39.2229 
 124   0.0000       1.468524        39.9606 
 125   0.0000       1.482530        40.3417 
 126   0.0000       1.501841        40.8672 
 127   0.0000       1.536741        41.8169 
 128   0.0000       1.550954        42.2036 
 129   0.0000       1.592448        43.3327 
 130   0.0000       1.618956        44.0540 
 131   0.0000       1.632324        44.4178 
 132   0.0000       1.665748        45.3273 
 133   0.0000       1.679232        45.6942 
 134   0.0000       1.700426        46.2709 
 135   0.0000       1.709074        46.5063 
 136   0.0000       1.724181        46.9173 
 137   0.0000       1.730358        47.0854 
 138   0.0000       1.748934        47.5909 
 139   0.0000       1.759164        47.8693 
 140   0.0000       1.787771        48.6477 
 141   0.0000       1.791088        48.7380 
 142   0.0000       1.815437        49.4006 
 143   0.0000       1.828531        49.7569 
 144   0.0000       1.840909        50.0937 
 145   0.0000       1.878848        51.1260 
 146   0.0000       1.881967        51.2109 
 147   0.0000       1.902311        51.7645 
 148   0.0000       1.910835        51.9965 
 149   0.0000       1.920991        52.2728 
 150   0.0000       1.949889        53.0592 
 151   0.0000       1.974015        53.7157 
 152   0.0000       1.981354        53.9154 
 153   0.0000       2.001702        54.4691 
 154   0.0000       2.015748        54.8513 
 155   0.0000       2.046729        55.6943 
 156   0.0000       2.080641        56.6171 
 157   0.0000       2.090041        56.8729 
 158   0.0000       2.124332        57.8060 
 159   0.0000       2.154826        58.6358 
 160   0.0000       2.193152        59.6787 
 161   0.0000       2.223632        60.5081 
 162   0.0000       2.247556        61.1591 
 163   0.0000       2.252454        61.2924 
 164   0.0000       2.258495        61.4568 
 165   0.0000       2.292570        62.3840 
 166   0.0000       2.321179        63.1625 
 167   0.0000       2.325169        63.2711 
 168   0.0000       2.359328        64.2006 
 169   0.0000       2.370883        64.5150 
 170   0.0000       2.400222        65.3134 
 171   0.0000       2.435636        66.2770 
 172   0.0000       2.460776        66.9611 
 173   0.0000       2.469351        67.1944 
 174   0.0000       2.507214        68.2248 
 175   0.0000       2.527456        68.7756 
 176   0.0000       2.540243        69.1235 
 177   0.0000       2.574344        70.0515 
 178   0.0000       2.603126        70.8347 
 179   0.0000       2.619965        71.2929 
 180   0.0000       2.620867        71.3174 
 181   0.0000       2.674113        72.7663 
 182   0.0000       2.679894        72.9236 
 183   0.0000       2.695805        73.3566 
 184   0.0000       2.703288        73.5602 
 185   0.0000       2.728076        74.2347 
 186   0.0000       2.733515        74.3827 
 187   0.0000       2.744100        74.6707 
 188   0.0000       2.775135        75.5153 
 189   0.0000       2.798894        76.1618 
 190   0.0000       2.817710        76.6738 
 191   0.0000       2.838503        77.2396 
 192   0.0000       2.843178        77.3668 
 193   0.0000       2.858816        77.7923 
 194   0.0000       2.872352        78.1607 
 195   0.0000       2.880834        78.3915 
 196   0.0000       2.891624        78.6851 
 197   0.0000       2.918069        79.4047 
 198   0.0000       2.926478        79.6335 
 199   0.0000       2.935389        79.8760 
 200   0.0000       2.957577        80.4798 
 201   0.0000       2.971610        80.8616 
 202   0.0000       2.992812        81.4386 
 203   0.0000       3.007094        81.8272 
 204   0.0000       3.044954        82.8574 
 205   0.0000       3.060563        83.2821 
 206   0.0000       3.064337        83.3849 
 207   0.0000       3.079316        83.7925 
 208   0.0000       3.098950        84.3267 
 209   0.0000       3.136566        85.3503 
 210   0.0000       3.145349        85.5893 
 211   0.0000       3.161567        86.0306 
 212   0.0000       3.173906        86.3664 
 213   0.0000       3.203780        87.1793 
 214   0.0000       3.243461        88.2591 
 215   0.0000       3.266831        88.8950 
 216   0.0000       3.281030        89.2814 
 217   0.0000       3.313917        90.1763 
 218   0.0000       3.329239        90.5932 
 219   0.0000       3.341281        90.9209 
 220   0.0000       3.373293        91.7920 
 221   0.0000       3.384542        92.0981 
 222   0.0000       3.397183        92.4420 
 223   0.0000       3.412858        92.8686 
 224   0.0000       3.421471        93.1030 
 225   0.0000       3.449564        93.8674 
 226   0.0000       3.465196        94.2928 
 227   0.0000       3.480037        94.6966 
 228   0.0000       3.493654        95.0672 
 229   0.0000       3.508388        95.4681 
 230   0.0000       3.528286        96.0095 
 231   0.0000       3.554215        96.7151 
 232   0.0000       3.566319        97.0445 
 233   0.0000       3.579863        97.4130 
 234   0.0000       3.611609        98.2769 
 235   0.0000       3.622615        98.5764 
 236   0.0000       3.640413        99.0607 
 237   0.0000       3.647996        99.2670 
 238   0.0000       3.679526       100.1250 
 239   0.0000       3.684893       100.2710 
 240   0.0000       3.716956       101.1435 
 241   0.0000       3.745183       101.9116 
 242   0.0000       3.770720       102.6065 
 243   0.0000       3.784977       102.9945 
 244   0.0000       3.813199       103.7624 
 245   0.0000       3.834786       104.3498 
 246   0.0000       3.859588       105.0247 
 247   0.0000       3.878069       105.5276 
 248   0.0000       3.893314       105.9425 
 249   0.0000       3.906438       106.2996 
 250   0.0000       3.930191       106.9459 
 251   0.0000       3.951754       107.5327 
 252   0.0000       3.995134       108.7131 
 253   0.0000       4.026911       109.5778 
 254   0.0000       4.052753       110.2810 
 255   0.0000       4.076734       110.9336 
 256   0.0000       4.095625       111.4476 
 257   0.0000       4.124218       112.2257 
 258   0.0000       4.171916       113.5236 
 259   0.0000       4.223147       114.9177 
 260   0.0000       4.246600       115.5559 
 261   0.0000       4.267104       116.1138 
 262   0.0000       4.284960       116.5997 
 263   0.0000       4.312403       117.3465 
 264   0.0000       4.325551       117.7042 
 265   0.0000       4.338751       118.0634 
 266   0.0000       4.347364       118.2978 
 267   0.0000       4.349179       118.3472 
 268   0.0000       4.368680       118.8778 
 269   0.0000       4.421237       120.3080 
 270   0.0000       4.453193       121.1775 
 271   0.0000       4.535091       123.4061 
 272   0.0000       4.543695       123.6402 
 273   0.0000       4.563120       124.1688 
 274   0.0000       4.582755       124.7031 
 275   0.0000       4.639934       126.2590 
 276   0.0000       4.649683       126.5243 
 277   0.0000       4.729624       128.6996 
 278   0.0000       4.740456       128.9944 
 279   0.0000       4.775301       129.9425 
 280   0.0000       4.797862       130.5565 
 281   0.0000       4.811703       130.9331 
 282   0.0000       4.867349       132.4473 
 283   0.0000       4.903784       133.4387 
 284   0.0000       4.906299       133.5072 
 285   0.0000       4.935013       134.2885 
 286   0.0000       4.965752       135.1250 
 287   0.0000       4.991759       135.8327 
 288   0.0000       4.999587       136.0457 
 289   0.0000       5.029341       136.8553 
 290   0.0000       5.066808       137.8748 
 291   0.0000       5.088103       138.4543 
 292   0.0000       5.155051       140.2761 
 293   0.0000       5.180038       140.9560 
 294   0.0000       5.214356       141.8898 
 295   0.0000       5.244473       142.7094 
 296   0.0000       5.282954       143.7565 
 297   0.0000       5.320027       144.7653 
 298   0.0000       5.328270       144.9896 
 299   0.0000       5.357535       145.7859 
 300   0.0000       5.389258       146.6492 
 301   0.0000       5.430402       147.7687 
 302   0.0000       5.500846       149.6856 
 303   0.0000       5.546563       150.9296 
 304   0.0000       5.562994       151.3768 
 305   0.0000       5.604942       152.5182 
 306   0.0000       5.607466       152.5869 
 307   0.0000       5.641867       153.5230 
 308   0.0000       5.665394       154.1632 
 309   0.0000       5.686591       154.7400 
 310   0.0000       5.735148       156.0613 
 311   0.0000       5.774059       157.1201 
 312   0.0000       5.810932       158.1235 
 313   0.0000       5.827214       158.5666 
 314   0.0000       5.881677       160.0486 
 315   0.0000       5.969275       162.4322 
 316   0.0000       6.032714       164.1585 
 317   0.0000       6.105207       166.1311 
 318   0.0000       6.141575       167.1208 
 319   0.0000       6.192668       168.5111 
 320   0.0000       6.221175       169.2868 
 321   0.0000       6.313606       171.8019 
 322   0.0000       6.318854       171.9447 
 323   0.0000       6.602822       179.6719 
 324   0.0000      23.432731       637.6370 
 325   0.0000      23.527334       640.2113 
 326   0.0000      23.640650       643.2948 
 327   0.0000      23.676157       644.2610 
 328   0.0000      23.924875       651.0289 
 329   0.0000      24.565394       668.4584 
 330   0.0000      33.363715       907.8728 
 331   0.0000      33.465017       910.6294 
 332   0.0000      33.798690       919.7091 

                    ********************************
                    * MULLIKEN POPULATION ANALYSIS *
                    ********************************

-----------------------
MULLIKEN ATOMIC CHARGES
-----------------------
   0 C :   -0.322648
   1 C :    0.046193
   2 C :   -0.072164
   3 N :   -0.343421
   4 C :   -0.106445
   5 C :    0.409542
   6 N :   -0.565451
   7 C :   -0.203941
   8 N :   -0.158325
   9 H :    0.130392
  10 H :    0.120145
  11 H :    0.119682
  12 H :    0.102367
  13 H :    0.137737
  14 H :    0.125198
  15 H :    0.103669
  16 H :    0.237273
  17 H :    0.240196
Sum of atomic charges:   -0.0000000

--------------------------------
MULLIKEN REDUCED ORBITAL CHARGES
--------------------------------
  0 C s       :     3.222325  s :     3.222325
      pz      :     1.053691  p :     3.023294
      px      :     1.076211
      py      :     0.893391
      dz2     :     0.017092  d :     0.072607
      dxz     :     0.007588
      dyz     :     0.015816
      dx2y2   :     0.015955
      dxy     :     0.016155
      f0      :     0.001177  f :     0.004423
      f+1     :     0.000121
      f-1     :     0.000574
      f+2     :     0.000482
      f-2     :     0.000197
      f+3     :     0.000855
      f-3     :     0.001017
  1 C s       :     3.132851  s :     3.132851
      pz      :     0.929280  p :     2.660979
      px      :     0.836563
      py      :     0.895135
      dz2     :     0.028288  d :     0.147630
      dxz     :     0.024095
      dyz     :     0.028522
      dx2y2   :     0.031806
      dxy     :     0.034920
      f0      :     0.001782  f :     0.012347
      f+1     :     0.001274
      f-1     :     0.001400
      f+2     :     0.001218
      f-2     :     0.001958
      f+3     :     0.002271
      f-3     :     0.002444
  2 C s       :     3.185360  s :     3.185360
      pz      :     0.787511  p :     2.748746
      px      :     0.943091
      py      :     1.018145
      dz2     :     0.023189  d :     0.125621
      dxz     :     0.032791
      dyz     :     0.033439
      dx2y2   :     0.011868
      dxy     :     0.024334
      f0      :     0.002485  f :     0.012437
      f+1     :     0.002215
      f-1     :     0.001803
      f+2     :     0.001854
      f-2     :     0.002300
      f+3     :     0.000988
      f-3     :     0.000793
  3 N s       :     3.636536  s :     3.636536
      pz      :     1.250050  p :     3.620471
      px      :     0.994511
      py      :     1.375910
      dz2     :     0.019594  d :     0.082060
      dxz     :     0.019494
      dyz     :     0.009534
      dx2y2   :     0.008999
      dxy     :     0.024438
      f0      :     0.000685  f :     0.004354
      f+1     :     0.000754
      f-1     :     0.000373
      f+2     :     0.000487
      f-2     :     0.000737
      f+3     :     0.000496
      f-3     :     0.000822
  4 C s       :     3.228371  s :     3.228371
      pz      :     0.864549  p :     2.759751
      px      :     0.923842
      py      :     0.971360
      dz2     :     0.028567  d :     0.109334
      dxz     :     0.020574
      dyz     :     0.018241
      dx2y2   :     0.022742
      dxy     :     0.019209
      f0      :     0.001493  f :     0.008989
      f+1     :     0.001650
      f-1     :     0.000827
      f+2     :     0.001142
      f-2     :     0.001187
      f+3     :     0.000869
      f-3     :     0.001821
  5 C s       :     2.905947  s :     2.905947
      pz      :     0.816660  p :     2.473465
      px      :     0.888962
      py      :     0.767843
      dz2     :     0.048319  d :     0.198125
      dxz     :     0.037162
      dyz     :     0.052142
      dx2y2   :     0.034284
      dxy     :     0.026217
      f0      :     0.001867  f :     0.012921
      f+1     :     0.001869
      f-1     :     0.002114
      f+2     :     0.002308
      f-2     :     0.002128
      f+3     :     0.001291
      f-3     :     0.001344
  6 N s       :     3.557021  s :     3.557021
      pz      :     1.486148  p :     3.955024
      px      :     1.349869
      py      :     1.119007
      dz2     :     0.007352  d :     0.050408
      dxz     :     0.005979
      dyz     :     0.017690
      dx2y2   :     0.010137
      dxy     :     0.009251
      f0      :     0.000476  f :     0.002998
      f+1     :     0.000338
      f-1     :     0.000210
      f+2     :     0.000726
      f-2     :     0.000656
      f+3     :     0.000225
      f-3     :     0.000366
  7 C s       :     3.248546  s :     3.248546
      pz      :     0.952463  p :     2.830763
      px      :     0.903434
      py      :     0.974866
      dz2     :     0.019735  d :     0.107187
      dxz     :     0.010378
      dyz     :     0.027622
      dx2y2   :     0.019478
      dxy     :     0.029974
      f0      :     0.000856  f :     0.017445
      f+1     :     0.000216
      f-1     :     0.005369
      f+2     :     0.002485
      f-2     :     0.002868
      f+3     :     0.003286
      f-3     :     0.002365
  8 N s       :     3.696981  s :     3.696981
      pz      :     1.111338  p :     3.403650
      px      :     1.056872
      py      :     1.235440
      dz2     :     0.011734  d :     0.054735
      dxz     :     0.005160
      dyz     :     0.012135
      dx2y2   :     0.009662
      dxy     :     0.016043
      f0      :     0.000122  f :     0.002958
      f+1     :     0.000027
      f-1     :     0.000937
      f+2     :     0.000380
      f-2     :     0.000498
      f+3     :     0.000592
      f-3     :     0.000403
  9 H s       :     0.846633  s :     0.846633
      pz      :     0.006766  p :     0.022975
      px      :     0.008245
      py      :     0.007963
 10 H s       :     0.857665  s :     0.857665
      pz      :     0.004819  p :     0.022190
      px      :     0.012843
      py      :     0.004528
 11 H s       :     0.858567  s :     0.858567
      pz      :     0.013812  p :     0.021751
      px      :     0.003661
      py      :     0.004278
 12 H s       :     0.874211  s :     0.874211
      pz      :     0.006202  p :     0.023421
      px      :     0.010299
      py      :     0.006920
 13 H s       :     0.838870  s :     0.838870
      pz      :     0.004980  p :     0.023393
      px      :     0.006195
      py      :     0.012218
 14 H s       :     0.852456  s :     0.852456
      pz      :     0.005360  p :     0.022347
      px      :     0.003483
      py      :     0.013503
 15 H s       :     0.873880  s :     0.873880
      pz      :     0.003388  p :     0.022451
      px      :     0.013225
      py      :     0.005838
 16 H s       :     0.726425  s :     0.726425
      pz      :     0.011273  p :     0.036302
      px      :     0.018086
      py      :     0.006942
 17 H s       :     0.723711  s :     0.723711
      pz      :     0.010653  p :     0.036093
      px      :     0.007815
      py      :     0.017625


                     *******************************
                     * LOEWDIN POPULATION ANALYSIS *
                     *******************************

----------------------
LOEWDIN ATOMIC CHARGES
----------------------
   0 C :   -0.256076
   1 C :   -0.238960
   2 C :   -0.126642
   3 N :    0.080732
   4 C :   -0.169427
   5 C :   -0.303975
   6 N :   -0.099370
   7 C :   -0.130413
   8 N :    0.034315
   9 H :    0.120900
  10 H :    0.125643
  11 H :    0.120672
  12 H :    0.147377
  13 H :    0.133342
  14 H :    0.121502
  15 H :    0.121280
  16 H :    0.158435
  17 H :    0.160666

-------------------------------
LOEWDIN REDUCED ORBITAL CHARGES
-------------------------------
  0 C s       :     2.819026  s :     2.819026
      pz      :     1.055013  p :     3.142026
      px      :     1.058988
      py      :     1.028024
      dz2     :     0.057858  d :     0.270148
      dxz     :     0.021041
      dyz     :     0.063436
      dx2y2   :     0.062934
      dxy     :     0.064878
      f0      :     0.004393  f :     0.024876
      f+1     :     0.000612
      f-1     :     0.003213
      f+2     :     0.003968
      f-2     :     0.003357
      f+3     :     0.004919
      f-3     :     0.004414
  1 C s       :     2.729837  s :     2.729837
      pz      :     0.957058  p :     2.853490
      px      :     0.884001
      py      :     1.012431
      dz2     :     0.095846  d :     0.585533
      dxz     :     0.091963
      dyz     :     0.115993
      dx2y2   :     0.120038
      dxy     :     0.161693
      f0      :     0.011177  f :     0.070100
      f+1     :     0.006648
      f-1     :     0.006575
      f+2     :     0.008243
      f-2     :     0.012811
      f+3     :     0.013957
      f-3     :     0.010691
  2 C s       :     2.744451  s :     2.744451
      pz      :     0.857757  p :     2.796810
      px      :     0.948904
      py      :     0.990148
      dz2     :     0.107682  d :     0.516770
      dxz     :     0.131368
      dyz     :     0.118154
      dx2y2   :     0.065935
      dxy     :     0.093630
      f0      :     0.014510  f :     0.068612
      f+1     :     0.014465
      f-1     :     0.010401
      f+2     :     0.010979
      f-2     :     0.008930
      f+3     :     0.004688
      f-3     :     0.004639
  3 N s       :     3.085629  s :     3.085629
      pz      :     1.222733  p :     3.592339
      px      :     1.044178
      py      :     1.325428
      dz2     :     0.039098  d :     0.221466
      dxz     :     0.057275
      dyz     :     0.030166
      dx2y2   :     0.040159
      dxy     :     0.054768
      f0      :     0.003684  f :     0.019835
      f+1     :     0.003376
      f-1     :     0.001884
      f+2     :     0.001786
      f-2     :     0.003608
      f+3     :     0.003168
      f-3     :     0.002329
  4 C s       :     2.795091  s :     2.795091
      pz      :     0.928192  p :     2.882742
      px      :     0.947411
      py      :     1.007139
      dz2     :     0.094902  d :     0.438180
      dxz     :     0.084760
      dyz     :     0.078176
      dx2y2   :     0.095546
      dxy     :     0.084797
      f0      :     0.007036  f :     0.053414
      f+1     :     0.010449
      f-1     :     0.005501
      f+2     :     0.007738
      f-2     :     0.008567
      f+3     :     0.005906
      f-3     :     0.008217
  5 C s       :     2.686798  s :     2.686798
      pz      :     0.942126  p :     2.824639
      px      :     0.954692
      py      :     0.927821
      dz2     :     0.147964  d :     0.708593
      dxz     :     0.130084
      dyz     :     0.194198
      dx2y2   :     0.124003
      dxy     :     0.112344
      f0      :     0.012605  f :     0.083946
      f+1     :     0.011387
      f-1     :     0.015872
      f+2     :     0.012934
      f-2     :     0.012118
      f+3     :     0.009704
      f-3     :     0.009326
  6 N s       :     3.074788  s :     3.074788
      pz      :     1.436930  p :     3.874019
      px      :     1.288753
      py      :     1.148335
      dz2     :     0.018687  d :     0.140757
      dxz     :     0.020558
      dyz     :     0.038853
      dx2y2   :     0.037304
      dxy     :     0.025356
      f0      :     0.001634  f :     0.009806
      f+1     :     0.000816
      f-1     :     0.001419
      f+2     :     0.001842
      f-2     :     0.001508
      f+3     :     0.000918
      f-3     :     0.001670
  7 C s       :     2.824854  s :     2.824854
      pz      :     0.898393  p :     2.820156
      px      :     0.836981
      py      :     1.084783
      dz2     :     0.073012  d :     0.426604
      dxz     :     0.037738
      dyz     :     0.119192
      dx2y2   :     0.092775
      dxy     :     0.103887
      f0      :     0.004856  f :     0.058799
      f+1     :     0.000616
      f-1     :     0.013955
      f+2     :     0.012304
      f-2     :     0.008408
      f+3     :     0.009675
      f-3     :     0.008986
  8 N s       :     3.304287  s :     3.304287
      pz      :     1.126072  p :     3.532953
      px      :     1.022701
      py      :     1.384180
      dz2     :     0.018819  d :     0.113323
      dxz     :     0.008290
      dyz     :     0.033273
      dx2y2   :     0.026726
      dxy     :     0.026215
      f0      :     0.001320  f :     0.015122
      f+1     :     0.000098
      f-1     :     0.003411
      f+2     :     0.003364
      f-2     :     0.002018
      f+3     :     0.002443
      f-3     :     0.002468
  9 H s       :     0.816354  s :     0.816354
      pz      :     0.019559  p :     0.062746
      px      :     0.023607
      py      :     0.019580
 10 H s       :     0.814228  s :     0.814228
      pz      :     0.015031  p :     0.060129
      px      :     0.032240
      py      :     0.012858
 11 H s       :     0.819477  s :     0.819477
      pz      :     0.034773  p :     0.059851
      px      :     0.012589
      py      :     0.012489
 12 H s       :     0.795620  s :     0.795620
      pz      :     0.016433  p :     0.057003
      px      :     0.022575
      py      :     0.017995
 13 H s       :     0.805496  s :     0.805496
      pz      :     0.012954  p :     0.061162
      px      :     0.017224
      py      :     0.030984
 14 H s       :     0.817576  s :     0.817576
      pz      :     0.015018  p :     0.060922
      px      :     0.011193
      py      :     0.034712
 15 H s       :     0.819944  s :     0.819944
      pz      :     0.010614  p :     0.058776
      px      :     0.030611
      py      :     0.017551
 16 H s       :     0.731875  s :     0.731875
      pz      :     0.033110  p :     0.109689
      px      :     0.053039
      py      :     0.023540
 17 H s       :     0.730123  s :     0.730123
      pz      :     0.037505  p :     0.109212
      px      :     0.024384
      py      :     0.047323


                      *****************************
                      * MAYER POPULATION ANALYSIS *
                      *****************************

  NA   - Mulliken gross atomic population
  ZA   - Total nuclear charge
  QA   - Mulliken gross atomic charge
  VA   - Mayer's total valence
  BVA  - Mayer's bonded valence
  FA   - Mayer's free valence

  ATOM       NA         ZA         QA         VA         BVA        FA
  0 C      6.3226     6.0000    -0.3226     3.8761     3.8761     0.0000
  1 C      5.9538     6.0000     0.0462     3.9151     3.9151    -0.0000
  2 C      6.0722     6.0000    -0.0722     3.8158     3.8158    -0.0000
  3 N      7.3434     7.0000    -0.3434     2.7745     2.7745    -0.0000
  4 C      6.1064     6.0000    -0.1064     4.0029     4.0029    -0.0000
  5 C      5.5905     6.0000     0.4095     3.8961     3.8961    -0.0000
  6 N      7.5655     7.0000    -0.5655     2.8272     2.8272     0.0000
  7 C      6.2039     6.0000    -0.2039     4.0285     4.0285     0.0000
  8 N      7.1583     7.0000    -0.1583     3.0477     3.0477     0.0000
  9 H      0.8696     1.0000     0.1304     0.9722     0.9722     0.0000
 10 H      0.8799     1.0000     0.1201     0.9756     0.9756     0.0000
 11 H      0.8803     1.0000     0.1197     0.9695     0.9695     0.0000
 12 H      0.8976     1.0000     0.1024     0.9756     0.9756    -0.0000
 13 H      0.8623     1.0000     0.1377     0.9612     0.9612     0.0000
 14 H      0.8748     1.0000     0.1252     0.9631     0.9631    -0.0000
 15 H      0.8963     1.0000     0.1037     0.9860     0.9860     0.0000
 16 H      0.7627     1.0000     0.2373     0.9470     0.9470     0.0000
 17 H      0.7598     1.0000     0.2402     0.9443     0.9443     0.0000

  Mayer bond orders larger than 0.1
B(  0-C ,  1-C ) :   0.9296 B(  0-C ,  9-H ) :   0.9855 B(  0-C , 10-H ) :   0.9773 
B(  0-C , 11-H ) :   0.9859 B(  1-C ,  2-C ) :   1.0279 B(  1-C ,  3-N ) :   0.9590 
B(  1-C , 12-H ) :   0.9777 B(  2-C ,  3-N ) :   0.8730 B(  2-C ,  5-C ) :   0.9135 
B(  2-C , 13-H ) :   0.9502 B(  3-N ,  4-C ) :   0.9255 B(  4-C ,  5-C ) :   1.0248 
B(  4-C , 14-H ) :   0.9824 B(  4-C , 15-H ) :   0.9698 B(  5-C ,  6-N ) :   0.9319 
B(  5-C ,  7-C ) :   0.9623 B(  6-N , 16-H ) :   0.9233 B(  6-N , 17-H ) :   0.9271 
B(  7-C ,  8-N ) :   3.0376 

-------
TIMINGS
-------

Total SCF time: 0 days 0 hours 2 min 17 sec 

Total time                  ....     137.584 sec
Sum of individual times     ....     141.677 sec  (103.0%)

Fock matrix formation       ....     136.166 sec  ( 99.0%)
Diagonalization             ....       0.632 sec  (  0.5%)
Density matrix formation    ....       0.041 sec  (  0.0%)
Population analysis         ....       0.156 sec  (  0.1%)
Initial guess               ....       2.883 sec  (  2.1%)
Orbital Transformation      ....       0.000 sec  (  0.0%)
Orbital Orthonormalization  ....       0.000 sec  (  0.0%)
DIIS solution               ....       0.190 sec  (  0.1%)
SOSCF solution              ....       0.266 sec  (  0.2%)

   <<< Auxbasis replaced with dsgdb9nsd_080367.AUXC.tmp (Dim=819) >>> 


------------------------------------------------------------------------------
                              ORCA MP2 CALCULATION
------------------------------------------------------------------------------

Freezing NCore=18 chemical core electrons

   <<< Use J-auxbasis for calculation of Separable RI-J derivative contributions dsgdb9nsd_080367.AUXJ.tmp (Dim=843) >>> 


---------------------
RI-MP2 ENERGY+DENSITY
---------------------
Dimension of the basis                    ...  333
Memory devoted to MP2                     ... 2000 MB   
Data format for buffers                   ... DOUBLE
Compression type for matrix containers    ... UNCOMPRESSED
Overall scaling of the MP2 energy         ...   1.000e+00 Eh
Calculating two index integrals           ... done (    0.017 sec)
Cholesky decomposition of V**-1           ... done (    0.115 sec)

-----------------
RI-TRANSFORMATION (AUX index driven)
-----------------

Dimension of the orbital-basis         ... 333
Dimension of the aux-basis             ... 819
Transformation of internal MOs         ...    0-  32
Transformation of internal/external MOs...    0-  32 to   33- 332
Number Format for Storage              ... Double (8 Byte)
Integral mode                          ... Direct

First Phase: integral generation and transformation of MO indices
  Aux angular momentum 0               ... done (    1.076 sec)
  Aux angular momentum 1               ... done (    1.216 sec)
  Aux angular momentum 2               ... done (    1.150 sec)
  Aux angular momentum 3               ... done (    0.894 sec)
  Aux angular momentum 4               ... done (    0.407 sec)
Closing buffer VIJ ( 0.00 GB; CompressionRatio= 1.94)
Closing buffer VIA ( 0.06 GB; CompressionRatio= 1.00)
  Phase 1 completed in     4.843 sec
Second Phase: sorting and transformation of aux index

IJ-Transformation
Memory available                       ... 1987 MB 
Max. # MO pairs treated in a batch     ... 33    
# of internal orbitals                 ... 33
# batches for internal orbitals        ... 1
Closing buffer IJV ( 0.00 GB; CompressionRatio= 1.00)
(ij|v) transformation done in     0.185 sec

IA-Transformation
Memory available                       ... 1987 MB 
Max. # MO pairs treated in a batch     ... 33    
# of internal orbitals                 ... 33
# batches for internal orbitals        ... 1
Closing buffer IAV ( 0.06 GB; CompressionRatio= 1.00)
(ia|v) transformation done in     1.385 sec

  Phase 2 completed in     1.707 sec
RI-Integral transformation completed in     6.550 sec
Opening buffers                              ... done
Frozen core precalculation                   ... done

Starting loop over batches of integrals:

Operator 0  - window                       ... (  9- 32)x( 33-332)
Operator 0  - Memory available             ...  2000 MB
Operator 0  - Memory needed per MO         ...   3.7 MB
Operator 0  - Number of orbitals per batch ... 24
Operator 0  - Number of batches            ... 1

OPERATOR  0   PASS   0:  MOs     9 ...   32
  Reading integrals       ... ok
  Internal MO  11
  Internal MO  14
  Internal MO  17
  Internal MO  20
  Internal MO  23
  Internal MO  26
  Internal MO  29
  Internal MO  32
Time spent in pair loops =    34.118 sec
Deleting buffer (Ka|jb)[aa] ...done

-----------------------------------------------
 RI-MP2 CORRELATION ENERGY:     -1.561951445 Eh
-----------------------------------------------


---------------------
MP2 DENSITY FORMATION
---------------------

Completing the external part of the density      ... done
Storing the unrelaxed density                    ... done

Calculating G(D)                                 ... done
Completing the Lagrangian                        ... done
Solving the Z-vector equations                   ... 

------------------------------------------------------------------------------
                           ORCA CP-SCF CALCULATION
------------------------------------------------------------------------------

Input orbitals are from        ... dsgdb9nsd_080367.gbw
Input Perturbation             ... dsgdb9nsd_080367.pin.tmp
Wavefunction output            ... dsgdb9nsd_080367.pout.tmp
Perturbation mode              ... Real perturbation
Solver                         ... POPLE
Max. number of iterations      ... 128
Convergence tolerance          ... 1.000e-08
Integral handling              ... Direct
Number of perturbations        ... 1
Number of operators            ... 1
Orbital ranges used for CP-SCF:
 Operator 0:  Orbitals   0... 32  to  33...332
Variables per vector in CP-SCF ... 9900
Number of vectors sought       ... 1
     CP-SCF ITERATION   0: 
     CP-SCF ITERATION   1:      0.001398980
     CP-SCF ITERATION   2:      0.000274411
     CP-SCF ITERATION   3:      0.000026126
     CP-SCF ITERATION   4:      0.000004211
     CP-SCF ITERATION   5:      0.000000724
     CP-SCF ITERATION   6:      0.000000184
     CP-SCF ITERATION   7:      0.000000039
     CP-SCF ITERATION   8:      0.000000006
done
Finalizing the relaxed density                   ... done
Transforming P to the AO basis                   ... done
Storing the relaxed density                      ... done

                *********************************************
                * UNRELAXED MP2 DENSITY POPULATION ANALYSIS *
                *********************************************

------------------------------------------------------------------------------
                           ORCA POPULATION ANALYSIS
------------------------------------------------------------------------------
Input electron density              ... dsgdb9nsd_080367.pmp2ur
BaseName (.gbw .S,...)              ... dsgdb9nsd_080367

                    ********************************
                    * MULLIKEN POPULATION ANALYSIS *
                    ********************************

-----------------------
MULLIKEN ATOMIC CHARGES
-----------------------
   0 C :   -0.331746
   1 C :    0.035379
   2 C :   -0.081002
   3 N :   -0.326847
   4 C :   -0.120830
   5 C :    0.395341
   6 N :   -0.561496
   7 C :   -0.209346
   8 N :   -0.143785
   9 H :    0.133325
  10 H :    0.123502
  11 H :    0.123049
  12 H :    0.107040
  13 H :    0.141743
  14 H :    0.128668
  15 H :    0.107767
  16 H :    0.238129
  17 H :    0.241109
Sum of atomic charges:   -0.0000000

--------------------------------
MULLIKEN REDUCED ORBITAL CHARGES
--------------------------------
  0 C s       :     3.219757  s :     3.219757
      pz      :     1.047813  p :     3.005273
      px      :     1.069588
      py      :     0.887872
      dz2     :     0.022017  d :     0.098564
      dxz     :     0.013429
      dyz     :     0.021358
      dx2y2   :     0.020159
      dxy     :     0.021601
      f0      :     0.001672  f :     0.008152
      f+1     :     0.000689
      f-1     :     0.001103
      f+2     :     0.001035
      f-2     :     0.000720
      f+3     :     0.001423
      f-3     :     0.001510
  1 C s       :     3.131565  s :     3.131565
      pz      :     0.925257  p :     2.649247
      px      :     0.835192
      py      :     0.888799
      dz2     :     0.031874  d :     0.167496
      dxz     :     0.028707
      dyz     :     0.032876
      dx2y2   :     0.035525
      dxy     :     0.038515
      f0      :     0.002315  f :     0.016313
      f+1     :     0.001776
      f-1     :     0.001921
      f+2     :     0.001849
      f-2     :     0.002507
      f+3     :     0.002985
      f-3     :     0.002961
  2 C s       :     3.181784  s :     3.181784
      pz      :     0.787510  p :     2.736234
      px      :     0.937171
      py      :     1.011553
      dz2     :     0.027071  d :     0.146668
      dxz     :     0.035832
      dyz     :     0.037573
      dx2y2   :     0.017402
      dxy     :     0.028790
      f0      :     0.003011  f :     0.016315
      f+1     :     0.002761
      f-1     :     0.002383
      f+2     :     0.002453
      f-2     :     0.002797
      f+3     :     0.001566
      f-3     :     0.001345
  3 N s       :     3.626617  s :     3.626617
      pz      :     1.235892  p :     3.582631
      px      :     0.986851
      py      :     1.359888
      dz2     :     0.024813  d :     0.109884
      dxz     :     0.024870
      dyz     :     0.015684
      dx2y2   :     0.015228
      dxy     :     0.029290
      f0      :     0.001181  f :     0.007715
      f+1     :     0.001235
      f-1     :     0.000858
      f+2     :     0.000955
      f-2     :     0.001218
      f+3     :     0.000989
      f-3     :     0.001279
  4 C s       :     3.227425  s :     3.227425
      pz      :     0.861145  p :     2.749011
      px      :     0.920675
      py      :     0.967191
      dz2     :     0.031912  d :     0.131701
      dxz     :     0.024712
      dyz     :     0.023231
      dx2y2   :     0.028075
      dxy     :     0.023770
      f0      :     0.001984  f :     0.012693
      f+1     :     0.002134
      f-1     :     0.001405
      f+2     :     0.001665
      f-2     :     0.001703
      f+3     :     0.001507
      f-3     :     0.002294
  5 C s       :     2.907852  s :     2.907852
      pz      :     0.809830  p :     2.460472
      px      :     0.882650
      py      :     0.767992
      dz2     :     0.053245  d :     0.219139
      dxz     :     0.041064
      dyz     :     0.055207
      dx2y2   :     0.038627
      dxy     :     0.030996
      f0      :     0.002466  f :     0.017196
      f+1     :     0.002445
      f-1     :     0.002899
      f+2     :     0.002884
      f-2     :     0.002711
      f+3     :     0.001903
      f-3     :     0.001888
  6 N s       :     3.551555  s :     3.551555
      pz      :     1.472520  p :     3.923892
      px      :     1.339392
      py      :     1.111981
      dz2     :     0.013609  d :     0.079891
      dxz     :     0.012230
      dyz     :     0.022960
      dx2y2   :     0.015993
      dxy     :     0.015099
      f0      :     0.000917  f :     0.006158
      f+1     :     0.000782
      f-1     :     0.000686
      f+2     :     0.001174
      f-2     :     0.001106
      f+3     :     0.000684
      f-3     :     0.000810
  7 C s       :     3.247669  s :     3.247669
      pz      :     0.948660  p :     2.819255
      px      :     0.902079
      py      :     0.968516
      dz2     :     0.023169  d :     0.122019
      dxz     :     0.014511
      dyz     :     0.028964
      dx2y2   :     0.022421
      dxy     :     0.032954
      f0      :     0.001303  f :     0.020403
      f+1     :     0.000605
      f-1     :     0.005780
      f+2     :     0.002862
      f-2     :     0.003291
      f+3     :     0.003729
      f-3     :     0.002834
  8 N s       :     3.683671  s :     3.683671
      pz      :     1.102968  p :     3.377820
      px      :     1.050272
      py      :     1.224579
      dz2     :     0.016088  d :     0.076637
      dxz     :     0.009815
      dyz     :     0.016433
      dx2y2   :     0.014034
      dxy     :     0.020268
      f0      :     0.000501  f :     0.005658
      f+1     :     0.000368
      f-1     :     0.001354
      f+2     :     0.000744
      f-2     :     0.000887
      f+3     :     0.000998
      f-3     :     0.000805
  9 H s       :     0.840583  s :     0.840583
      pz      :     0.007840  p :     0.026092
      px      :     0.009279
      py      :     0.008973
 10 H s       :     0.851289  s :     0.851289
      pz      :     0.005877  p :     0.025209
      px      :     0.013720
      py      :     0.005612
 11 H s       :     0.852139  s :     0.852139
      pz      :     0.014671  p :     0.024812
      px      :     0.004762
      py      :     0.005380
 12 H s       :     0.866476  s :     0.866476
      pz      :     0.007272  p :     0.026484
      px      :     0.011278
      py      :     0.007934
 13 H s       :     0.831828  s :     0.831828
      pz      :     0.006089  p :     0.026428
      px      :     0.007240
      py      :     0.013099
 14 H s       :     0.845861  s :     0.845861
      pz      :     0.006470  p :     0.025472
      px      :     0.004614
      py      :     0.014388
 15 H s       :     0.866690  s :     0.866690
      pz      :     0.004540  p :     0.025542
      px      :     0.014108
      py      :     0.006894
 16 H s       :     0.723394  s :     0.723394
      pz      :     0.012038  p :     0.038476
      px      :     0.018653
      py      :     0.007785
 17 H s       :     0.720626  s :     0.720626
      pz      :     0.011525  p :     0.038265
      px      :     0.008707
      py      :     0.018032


                     *******************************
                     * LOEWDIN POPULATION ANALYSIS *
                     *******************************

----------------------
LOEWDIN ATOMIC CHARGES
----------------------
   0 C :   -0.262135
   1 C :   -0.241639
   2 C :   -0.132529
   3 N :    0.087308
   4 C :   -0.176149
   5 C :   -0.306167
   6 N :   -0.097997
   7 C :   -0.137199
   8 N :    0.042511
   9 H :    0.122810
  10 H :    0.127552
  11 H :    0.122565
  12 H :    0.149173
  13 H :    0.135276
  14 H :    0.123335
  15 H :    0.123167
  16 H :    0.158984
  17 H :    0.161135

-------------------------------
LOEWDIN REDUCED ORBITAL CHARGES
-------------------------------
  0 C s       :     2.817251  s :     2.817251
      pz      :     1.047192  p :     3.116580
      px      :     1.050952
      py      :     1.018437
      dz2     :     0.063593  d :     0.297914
      dxz     :     0.027016
      dyz     :     0.068495
      dx2y2   :     0.068673
      dxy     :     0.070137
      f0      :     0.005243  f :     0.030389
      f+1     :     0.001265
      f-1     :     0.004035
      f+2     :     0.004697
      f-2     :     0.004050
      f+3     :     0.005751
      f-3     :     0.005348
  1 C s       :     2.728657  s :     2.728657
      pz      :     0.949310  p :     2.831108
      px      :     0.878960
      py      :     1.002838
      dz2     :     0.100100  d :     0.605320
      dxz     :     0.096165
      dyz     :     0.120147
      dx2y2   :     0.124004
      dxy     :     0.164904
      f0      :     0.011797  f :     0.076554
      f+1     :     0.007611
      f-1     :     0.007687
      f+2     :     0.009054
      f-2     :     0.013563
      f+3     :     0.014755
      f-3     :     0.012087
  2 C s       :     2.743176  s :     2.743176
      pz      :     0.852417  p :     2.774845
      px      :     0.940699
      py      :     0.981729
      dz2     :     0.111504  d :     0.539706
      dxz     :     0.136242
      dyz     :     0.122427
      dx2y2   :     0.071069
      dxy     :     0.098465
      f0      :     0.015200  f :     0.074801
      f+1     :     0.015622
      f-1     :     0.011178
      f+2     :     0.011837
      f-2     :     0.010049
      f+3     :     0.005480
      f-3     :     0.005437
  3 N s       :     3.081644  s :     3.081644
      pz      :     1.208807  p :     3.553670
      px      :     1.034522
      py      :     1.310341
      dz2     :     0.046352  d :     0.253245
      dxz     :     0.063237
      dyz     :     0.036161
      dx2y2   :     0.046005
      dxy     :     0.061489
      f0      :     0.004291  f :     0.024134
      f+1     :     0.004110
      f-1     :     0.002430
      f+2     :     0.002322
      f-2     :     0.004207
      f+3     :     0.003737
      f-3     :     0.003036
  4 C s       :     2.793991  s :     2.793991
      pz      :     0.920869  p :     2.862239
      px      :     0.941244
      py      :     1.000126
      dz2     :     0.099066  d :     0.460847
      dxz     :     0.089167
      dyz     :     0.082834
      dx2y2   :     0.099838
      dxy     :     0.089942
      f0      :     0.007995  f :     0.059072
      f+1     :     0.011264
      f-1     :     0.006222
      f+2     :     0.008418
      f-2     :     0.009346
      f+3     :     0.006633
      f-3     :     0.009194
  5 C s       :     2.685769  s :     2.685769
      pz      :     0.933592  p :     2.799755
      px      :     0.945649
      py      :     0.920515
      dz2     :     0.151943  d :     0.728957
      dxz     :     0.134572
      dyz     :     0.197260
      dx2y2   :     0.127839
      dxy     :     0.117342
      f0      :     0.013724  f :     0.091686
      f+1     :     0.012389
      f-1     :     0.017110
      f+2     :     0.014071
      f-2     :     0.013462
      f+3     :     0.010654
      f-3     :     0.010277
  6 N s       :     3.071986  s :     3.071986
      pz      :     1.423029  p :     3.840164
      px      :     1.277653
      py      :     1.139483
      dz2     :     0.024919  d :     0.172140
      dxz     :     0.027173
      dyz     :     0.045340
      dx2y2   :     0.043198
      dxy     :     0.031511
      f0      :     0.002171  f :     0.013707
      f+1     :     0.001326
      f-1     :     0.001965
      f+2     :     0.002435
      f-2     :     0.002127
      f+3     :     0.001456
      f-3     :     0.002226
  7 C s       :     2.821615  s :     2.821615
      pz      :     0.892903  p :     2.800508
      px      :     0.832938
      py      :     1.074667
      dz2     :     0.076673  d :     0.448620
      dxz     :     0.041935
      dyz     :     0.124800
      dx2y2   :     0.098131
      dxy     :     0.107080
      f0      :     0.005606  f :     0.066456
      f+1     :     0.001106
      f-1     :     0.015668
      f+2     :     0.013363
      f-2     :     0.009587
      f+3     :     0.011003
      f-3     :     0.010125
  8 N s       :     3.296535  s :     3.296535
      pz      :     1.115097  p :     3.498293
      px      :     1.013478
      py      :     1.369718
      dz2     :     0.024628  d :     0.143074
      dxz     :     0.013524
      dyz     :     0.039710
      dx2y2   :     0.032803
      dxy     :     0.032408
      f0      :     0.001841  f :     0.019588
      f+1     :     0.000461
      f-1     :     0.004263
      f+2     :     0.004072
      f-2     :     0.002654
      f+3     :     0.003148
      f-3     :     0.003150
  9 H s       :     0.809125  s :     0.809125
      pz      :     0.021186  p :     0.068065
      px      :     0.025501
      py      :     0.021378
 10 H s       :     0.807186  s :     0.807186
      pz      :     0.016408  p :     0.065263
      px      :     0.034585
      py      :     0.014270
 11 H s       :     0.812400  s :     0.812400
      pz      :     0.037278  p :     0.065035
      px      :     0.013858
      py      :     0.013899
 12 H s       :     0.788403  s :     0.788403
      pz      :     0.017993  p :     0.062424
      px      :     0.024725
      py      :     0.019706
 13 H s       :     0.798308  s :     0.798308
      pz      :     0.014564  p :     0.066416
      px      :     0.018771
      py      :     0.033082
 14 H s       :     0.810255  s :     0.810255
      pz      :     0.016610  p :     0.066410
      px      :     0.012609
      py      :     0.037192
 15 H s       :     0.812649  s :     0.812649
      pz      :     0.011990  p :     0.064184
      px      :     0.033053
      py      :     0.019140
 16 H s       :     0.727118  s :     0.727118
      pz      :     0.034040  p :     0.113898
      px      :     0.055091
      py      :     0.024768
 17 H s       :     0.725380  s :     0.725380
      pz      :     0.038839  p :     0.113485
      px      :     0.025485
      py      :     0.049160


                      *****************************
                      * MAYER POPULATION ANALYSIS *
                      *****************************

  NA   - Mulliken gross atomic population
  ZA   - Total nuclear charge
  QA   - Mulliken gross atomic charge
  VA   - Mayer's total valence
  BVA  - Mayer's bonded valence
  FA   - Mayer's free valence

  ATOM       NA         ZA         QA         VA         BVA        FA
  0 C      6.3317     6.0000    -0.3317     3.9981     3.6962     0.3019
  1 C      5.9646     6.0000     0.0354     4.0070     3.6610     0.3459
  2 C      6.0810     6.0000    -0.0810     3.9157     3.5453     0.3704
  3 N      7.3268     7.0000    -0.3268     2.9921     2.5293     0.4629
  4 C      6.1208     6.0000    -0.1208     4.1090     3.7713     0.3377
  5 C      5.6047     6.0000     0.3953     3.9733     3.6356     0.3377
  6 N      7.5615     7.0000    -0.5615     3.0641     2.6759     0.3882
  7 C      6.2093     6.0000    -0.2093     4.1276     3.6823     0.4453
  8 N      7.1438     7.0000    -0.1438     3.2379     2.7539     0.4840
  9 H      0.8667     1.0000     0.1333     0.9805     0.9304     0.0501
 10 H      0.8765     1.0000     0.1235     0.9837     0.9343     0.0494
 11 H      0.8770     1.0000     0.1230     0.9779     0.9284     0.0494
 12 H      0.8930     1.0000     0.1070     0.9834     0.9337     0.0497
 13 H      0.8583     1.0000     0.1417     0.9682     0.9191     0.0491
 14 H      0.8713     1.0000     0.1287     0.9714     0.9210     0.0505
 15 H      0.8922     1.0000     0.1078     0.9940     0.9434     0.0507
 16 H      0.7619     1.0000     0.2381     0.9530     0.9032     0.0498
 17 H      0.7589     1.0000     0.2411     0.9502     0.9004     0.0497

  Mayer bond orders larger than 0.1
B(  0-C ,  1-C ) :   0.8729 B(  0-C ,  9-H ) :   0.9452 B(  0-C , 10-H ) :   0.9382 
B(  0-C , 11-H ) :   0.9465 B(  1-C ,  2-C ) :   0.9554 B(  1-C ,  3-N ) :   0.8820 
B(  1-C , 12-H ) :   0.9384 B(  2-C ,  3-N ) :   0.7865 B(  2-C ,  5-C ) :   0.8499 
B(  2-C , 13-H ) :   0.9121 B(  3-N ,  4-C ) :   0.8542 B(  4-C ,  5-C ) :   0.9550 
B(  4-C , 14-H ) :   0.9425 B(  4-C , 15-H ) :   0.9301 B(  5-C ,  6-N ) :   0.8701 
B(  5-C ,  7-C ) :   0.9071 B(  6-N , 16-H ) :   0.8822 B(  6-N , 17-H ) :   0.8856 
B(  7-C ,  8-N ) :   2.7510 


                *******************************************
                * RELAXED MP2 DENSITY POPULATION ANALYSIS *
                *******************************************

------------------------------------------------------------------------------
                           ORCA POPULATION ANALYSIS
------------------------------------------------------------------------------
Input electron density              ... dsgdb9nsd_080367.pmp2re
BaseName (.gbw .S,...)              ... dsgdb9nsd_080367

                    ********************************
                    * MULLIKEN POPULATION ANALYSIS *
                    ********************************

-----------------------
MULLIKEN ATOMIC CHARGES
-----------------------
   0 C :   -0.391947
   1 C :   -0.027516
   2 C :   -0.099143
   3 N :   -0.231208
   4 C :   -0.175336
   5 C :    0.281490
   6 N :   -0.550646
   7 C :   -0.218734
   8 N :   -0.044376
   9 H :    0.148653
  10 H :    0.145762
  11 H :    0.144737
  12 H :    0.121639
  13 H :    0.147340
  14 H :    0.139308
  15 H :    0.122778
  16 H :    0.243051
  17 H :    0.244147
Sum of atomic charges:   -0.0000000

--------------------------------
MULLIKEN REDUCED ORBITAL CHARGES
--------------------------------
  0 C s       :     3.239968  s :     3.239968
      pz      :     1.068556  p :     3.057500
      px      :     1.087338
      py      :     0.901606
      dz2     :     0.018071  d :     0.086710
      dxz     :     0.011026
      dyz     :     0.021124
      dx2y2   :     0.016225
      dxy     :     0.020263
      f0      :     0.001592  f :     0.007770
      f+1     :     0.000684
      f-1     :     0.001018
      f+2     :     0.001024
      f-2     :     0.000686
      f+3     :     0.001395
      f-3     :     0.001372
  1 C s       :     3.175287  s :     3.175287
[...]
      f-2     :     0.002357
      f+3     :     0.002961
      f-3     :     0.002691
  2 C s       :     3.216273  s :     3.216273
      pz      :     0.788179  p :     2.730573
      px      :     0.943182
      py      :     0.999212
      dz2     :     0.027133  d :     0.136777
      dxz     :     0.030920
      dyz     :     0.034214
      dx2y2   :     0.018272
      dxy     :     0.026237
      f0      :     0.002859  f :     0.015520
      f+1     :     0.002626
      f-1     :     0.002328
      f+2     :     0.002378
      f-2     :     0.002480
      f+3     :     0.001527
      f-3     :     0.001322
  3 N s       :     3.607853  s :     3.607853
      pz      :     1.204547  p :     3.510736
      px      :     0.970964
      py      :     1.335226
      dz2     :     0.022964  d :     0.105046
      dxz     :     0.024364
      dyz     :     0.015970
      dx2y2   :     0.016252
      dxy     :     0.025497
      f0      :     0.001156  f :     0.007573
      f+1     :     0.001203
      f-1     :     0.000864
      f+2     :     0.000951
      f-2     :     0.001184
      f+3     :     0.001009
      f-3     :     0.001205
  4 C s       :     3.252531  s :     3.252531
      pz      :     0.874587  p :     2.790202
      px      :     0.929394
      py      :     0.986222
      dz2     :     0.026790  d :     0.120616
      dxz     :     0.023716
      dyz     :     0.022631
      dx2y2   :     0.026419
      dxy     :     0.021060
      f0      :     0.001798  f :     0.011986
      f+1     :     0.001919
      f-1     :     0.001392
      f+2     :     0.001600
      f-2     :     0.001656
      f+3     :     0.001504
      f-3     :     0.002118
  5 C s       :     2.985842  s :     2.985842
      pz      :     0.795306  p :     2.506232
      px      :     0.894969
      py      :     0.815956
      dz2     :     0.052284  d :     0.209977
      dxz     :     0.037868
      dyz     :     0.054253
      dx2y2   :     0.036683
      dxy     :     0.028889
      f0      :     0.002295  f :     0.016459
      f+1     :     0.002329
      f-1     :     0.002920
      f+2     :     0.002726
      f-2     :     0.002565
      f+3     :     0.001885
      f-3     :     0.001739
  6 N s       :     3.563009  s :     3.563009
      pz      :     1.465070  p :     3.907527
      px      :     1.329143
      py      :     1.113314
      dz2     :     0.013743  d :     0.074178
      dxz     :     0.011957
      dyz     :     0.019962
      dx2y2   :     0.015027
      dxy     :     0.013490
      f0      :     0.000890  f :     0.005932
      f+1     :     0.000770
      f-1     :     0.000666
      f+2     :     0.001131
      f-2     :     0.001035
      f+3     :     0.000662
      f-3     :     0.000777
  7 C s       :     3.212375  s :     3.212375
      pz      :     0.959855  p :     2.887466
      px      :     0.914397
      py      :     1.013214
      dz2     :     0.017760  d :     0.099623
      dxz     :     0.012348
      dyz     :     0.024360
      dx2y2   :     0.019730
      dxy     :     0.025425
      f0      :     0.001273  f :     0.019269
      f+1     :     0.000589
      f-1     :     0.005380
      f+2     :     0.002742
      f-2     :     0.003090
      f+3     :     0.003485
      f-3     :     0.002710
  8 N s       :     3.608557  s :     3.608557
      pz      :     1.093758  p :     3.362828
      px      :     1.050683
      py      :     1.218387
      dz2     :     0.014011  d :     0.067828
      dxz     :     0.008909
      dyz     :     0.014789
      dx2y2   :     0.012774
      dxy     :     0.017344
      f0      :     0.000478  f :     0.005164
      f+1     :     0.000364
      f-1     :     0.001199
      f+2     :     0.000676
      f-2     :     0.000806
      f+3     :     0.000902
      f-3     :     0.000739
  9 H s       :     0.826295  s :     0.826295
      pz      :     0.007623  p :     0.025052
      px      :     0.008861
      py      :     0.008568
 10 H s       :     0.830027  s :     0.830027
      pz      :     0.005961  p :     0.024211
      px      :     0.012520
      py      :     0.005729
 11 H s       :     0.831444  s :     0.831444
      pz      :     0.013293  p :     0.023819
      px      :     0.005015
      py      :     0.005511
 12 H s       :     0.853105  s :     0.853105
      pz      :     0.007211  p :     0.025257
      px      :     0.010522
      py      :     0.007525
 13 H s       :     0.827418  s :     0.827418
      pz      :     0.006048  p :     0.025242
      px      :     0.007136
      py      :     0.012058
 14 H s       :     0.836203  s :     0.836203
      pz      :     0.006471  p :     0.024488
      px      :     0.004877
      py      :     0.013140
 15 H s       :     0.852775  s :     0.852775
      pz      :     0.004794  p :     0.024447
      px      :     0.012960
      py      :     0.006692
 16 H s       :     0.719252  s :     0.719252
      pz      :     0.012094  p :     0.037697
      px      :     0.017742
      py      :     0.007862
 17 H s       :     0.718367  s :     0.718367
      pz      :     0.011591  p :     0.037486
      px      :     0.009084
      py      :     0.016811


                     *******************************
                     * LOEWDIN POPULATION ANALYSIS *
                     *******************************

----------------------
LOEWDIN ATOMIC CHARGES
----------------------
   0 C :   -0.287381
   1 C :   -0.262626
   2 C :   -0.149592
   3 N :    0.113330
   4 C :   -0.199620
   5 C :   -0.325677
   6 N :   -0.096482
   7 C :   -0.153753
   8 N :    0.070718
   9 H :    0.130848
  10 H :    0.137376
  11 H :    0.131868
  12 H :    0.157780
  13 H :    0.141617
  14 H :    0.130038
  15 H :    0.130998
  16 H :    0.164645
  17 H :    0.165913

-------------------------------
LOEWDIN REDUCED ORBITAL CHARGES
-------------------------------
  0 C s       :     2.822606  s :     2.822606
      pz      :     1.060409  p :     3.150476
      px      :     1.063748
      py      :     1.026319
      dz2     :     0.058684  d :     0.284249
      dxz     :     0.024306
      dyz     :     0.068645
      dx2y2   :     0.063793
      dxy     :     0.068821
      f0      :     0.005148  f :     0.030050
      f+1     :     0.001260
      f-1     :     0.003933
      f+2     :     0.004726
      f-2     :     0.004000
      f+3     :     0.005766
      f-3     :     0.005217
  1 C s       :     2.736232  s :     2.736232
      pz      :     0.962793  p :     2.853440
      px      :     0.887369
      py      :     1.003277
      dz2     :     0.095573  d :     0.597929
      dxz     :     0.094034
      dyz     :     0.121431
      dx2y2   :     0.121641
      dxy     :     0.165250
      f0      :     0.011382  f :     0.075026
      f+1     :     0.007586
      f-1     :     0.007504
      f+2     :     0.009121
      f-2     :     0.013158
      f+3     :     0.014444
      f-3     :     0.011831
  2 C s       :     2.752840  s :     2.752840
      pz      :     0.858467  p :     2.788601
      px      :     0.942809
      py      :     0.987325
      dz2     :     0.112009  d :     0.534479
      dxz     :     0.132375
      dyz     :     0.121706
      dx2y2   :     0.072692
      dxy     :     0.095697
      f0      :     0.014823  f :     0.073672
      f+1     :     0.015763
      f-1     :     0.011001
      f+2     :     0.011744
      f-2     :     0.009517
      f+3     :     0.005492
      f-3     :     0.005332
  3 N s       :     3.090762  s :     3.090762
      pz      :     1.187763  p :     3.517528
      px      :     1.035103
      py      :     1.294662
      dz2     :     0.046111  d :     0.254017
      dxz     :     0.064118
      dyz     :     0.036331
      dx2y2   :     0.047529
      dxy     :     0.059929
      f0      :     0.004251  f :     0.024362
      f+1     :     0.004200
      f-1     :     0.002431
      f+2     :     0.002337
      f-2     :     0.004231
      f+3     :     0.003791
      f-3     :     0.003122
  4 C s       :     2.803977  s :     2.803977
      pz      :     0.932276  p :     2.888886
      px      :     0.946910
      py      :     1.009701
      dz2     :     0.093338  d :     0.448856
      dxz     :     0.088258
      dyz     :     0.083121
      dx2y2   :     0.097051
      dxy     :     0.087088
      f0      :     0.007847  f :     0.057901
      f+1     :     0.010884
      f-1     :     0.006191
      f+2     :     0.008236
      f-2     :     0.009422
      f+3     :     0.006448
      f-3     :     0.008873
  5 C s       :     2.692251  s :     2.692251
      pz      :     0.932511  p :     2.810572
      px      :     0.946927
      py      :     0.931134
      dz2     :     0.156131  d :     0.731573
      dxz     :     0.134192
      dyz     :     0.196760
      dx2y2   :     0.127029
      dxy     :     0.117460
      f0      :     0.013507  f :     0.091281
      f+1     :     0.012528
      f-1     :     0.017133
      f+2     :     0.013620
      f-2     :     0.013507
      f+3     :     0.010768
      f-3     :     0.010219
  6 N s       :     3.077371  s :     3.077371
      pz      :     1.415801  p :     3.837773
      px      :     1.276710
      py      :     1.145261
      dz2     :     0.025424  d :     0.167681
      dxz     :     0.026678
      dyz     :     0.042888
      dx2y2   :     0.042397
      dxy     :     0.030294
      f0      :     0.002178  f :     0.013657
      f+1     :     0.001337
      f-1     :     0.001960
      f+2     :     0.002418
      f-2     :     0.002112
      f+3     :     0.001450
      f-3     :     0.002203
  7 C s       :     2.826640  s :     2.826640
      pz      :     0.906797  p :     2.827894
      px      :     0.847416
      py      :     1.073682
      dz2     :     0.071213  d :     0.432503
      dxz     :     0.039852
      dyz     :     0.123755
      dx2y2   :     0.097163
      dxy     :     0.100520
      f0      :     0.005827  f :     0.066716
      f+1     :     0.001055
      f-1     :     0.015271
      f+2     :     0.013857
      f-2     :     0.009477
      f+3     :     0.010904
      f-3     :     0.010325
  8 N s       :     3.297244  s :     3.297244
      pz      :     1.104763  p :     3.473266
      px      :     1.011044
      py      :     1.357459
      dz2     :     0.023447  d :     0.138808
      dxz     :     0.012939
      dyz     :     0.039413
      dx2y2   :     0.032565
      dxy     :     0.030445
      f0      :     0.001861  f :     0.019963
      f+1     :     0.000465
      f-1     :     0.004397
      f+2     :     0.004132
      f-2     :     0.002701
      f+3     :     0.003202
      f-3     :     0.003205
  9 H s       :     0.800403  s :     0.800403
      pz      :     0.021460  p :     0.068748
      px      :     0.025745
      py      :     0.021544
 10 H s       :     0.796343  s :     0.796343
      pz      :     0.016917  p :     0.066281
      px      :     0.034477
      py      :     0.014887
 11 H s       :     0.802097  s :     0.802097
      pz      :     0.037108  p :     0.066035
      px      :     0.014444
      py      :     0.014483
 12 H s       :     0.778836  s :     0.778836
      pz      :     0.018628  p :     0.063384
      px      :     0.024901
      py      :     0.019855
 13 H s       :     0.791043  s :     0.791043
      pz      :     0.015162  p :     0.067340
      px      :     0.019216
      py      :     0.032962
 14 H s       :     0.802398  s :     0.802398
      pz      :     0.017259  p :     0.067564
      px      :     0.013227
      py      :     0.037077
 15 H s       :     0.803805  s :     0.803805
      pz      :     0.012697  p :     0.065197
      px      :     0.033043
      py      :     0.019457
 16 H s       :     0.721039  s :     0.721039
      pz      :     0.034157  p :     0.114316
      px      :     0.055017
      py      :     0.025142
 17 H s       :     0.720227  s :     0.720227
      pz      :     0.039430  p :     0.113860
      px      :     0.025966
      py      :     0.048465


                      *****************************
                      * MAYER POPULATION ANALYSIS *
                      *****************************

  NA   - Mulliken gross atomic population
  ZA   - Total nuclear charge
  QA   - Mulliken gross atomic charge
  VA   - Mayer's total valence
  BVA  - Mayer's bonded valence
  FA   - Mayer's free valence

  ATOM       NA         ZA         QA         VA         BVA        FA
  0 C      6.3919     6.0000    -0.3919     3.9774     3.6786     0.2987
  1 C      6.0275     6.0000    -0.0275     4.0267     3.6861     0.3406
  2 C      6.0991     6.0000    -0.0991     3.9440     3.5812     0.3628
  3 N      7.2312     7.0000    -0.2312     3.1104     2.6590     0.4514
  4 C      6.1753     6.0000    -0.1753     4.1346     3.8013     0.3333
  5 C      5.7185     6.0000     0.2815     4.0398     3.7062     0.3337
  6 N      7.5506     7.0000    -0.5506     3.0701     2.6883     0.3817
  7 C      6.2187     6.0000    -0.2187     4.2594     3.8288     0.4305
  8 N      7.0444     7.0000    -0.0444     3.3660     2.8938     0.4722
  9 H      0.8513     1.0000     0.1487     0.9777     0.9284     0.0493
 10 H      0.8542     1.0000     0.1458     0.9756     0.9272     0.0484
 11 H      0.8553     1.0000     0.1447     0.9697     0.9212     0.0485
 12 H      0.8784     1.0000     0.1216     0.9736     0.9250     0.0487
 13 H      0.8527     1.0000     0.1473     0.9606     0.9124     0.0483
 14 H      0.8607     1.0000     0.1393     0.9670     0.9180     0.0490
 15 H      0.8772     1.0000     0.1228     0.9871     0.9377     0.0494
 16 H      0.7569     1.0000     0.2431     0.9470     0.8977     0.0493
 17 H      0.7559     1.0000     0.2441     0.9467     0.8975     0.0492

  Mayer bond orders larger than 0.1
B(  0-C ,  1-C ) :   0.8896 B(  0-C ,  9-H ) :   0.9329 B(  0-C , 10-H ) :   0.9255 
B(  0-C , 11-H ) :   0.9336 B(  1-C ,  2-C ) :   0.9260 B(  1-C ,  3-N ) :   0.9091 
B(  1-C , 12-H ) :   0.9266 B(  2-C ,  3-N ) :   0.8415 B(  2-C ,  5-C ) :   0.8716 
B(  2-C , 13-H ) :   0.9009 B(  3-N ,  4-C ) :   0.9174 B(  4-C ,  5-C ) :   0.9700 
B(  4-C , 14-H ) :   0.9243 B(  4-C , 15-H ) :   0.9114 B(  5-C ,  6-N ) :   0.8501 
B(  5-C ,  7-C ) :   0.9423 B(  6-N , 16-H ) :   0.8727 B(  6-N , 17-H ) :   0.8759 
B(  7-C ,  8-N ) :   2.8570 


-------
TIMINGS
-------

Total time                :  967.827 sec
Integral trafo            :    6.559 sec (  0.7%)
FC preparation            :    3.337 sec (  0.3%)
I/O of integrals          :    0.049 sec (  0.0%)
K(i,j) Operators          :    8.091 sec (  0.8%)
T(i,j) pair energies      :    0.735 sec (  0.1%)
V-calculation             :    0.017 sec (  0.0%)
V**(-1/2)                 :    0.115 sec (  0.0%)
Gamma(ia|P)               :    7.898 sec (  0.8%)
Gamma-Trafo               :    1.332 sec (  0.1%)
D(virtual)                :    2.999 sec (  0.3%)
D(internal)               :    2.758 sec (  0.3%)
W(virtual)                :    0.000 sec (  0.0%)
W(internal)               :    0.000 sec (  0.0%)
L(virtual)                :    9.818 sec (  1.0%)
L(internal)               :    0.173 sec (  0.0%)
G(D)                      :  105.381 sec ( 10.9%)
G(Z)                      :    0.000 sec (  0.0%)
Z-Vector Solution         :  817.888 sec ( 84.5%)
3-Index Derivative        :    0.000 sec (  0.0%)
2-Index Derivative        :    0.000 sec (  0.0%)
Separable Gradient (RIJ)  :    0.000 sec (  0.0%)
Separable Gradient (X)    :    0.000 sec (  0.0%)


---------------------------------------
MP2 TOTAL ENERGY:     -397.397327240 Eh
---------------------------------------

-------------------------   --------------------
FINAL SINGLE POINT ENERGY      -397.397327240383
-------------------------   --------------------


                            ***************************************
                            *     ORCA property calculations      *
                            ***************************************

                                    ---------------------
                                    Active property flags
                                    ---------------------
   (+) Dipole Moment


------------------------------------------------------------------------------
                       ORCA ELECTRIC PROPERTIES CALCULATION
------------------------------------------------------------------------------

Dipole Moment Calculation                       ... on
Quadrupole Moment Calculation                   ... off
Polarizability Calculation                      ... off
GBWName                                         ... dsgdb9nsd_080367.gbw
Electron density file                           ... dsgdb9nsd_080367.scfp.tmp

-------------
DIPOLE MOMENT
-------------
                                X             Y             Z
Electronic contribution:      1.22137      -0.01476      -4.13225
Nuclear contribution   :     -0.89873      -0.73996       4.94074
                        -----------------------------------------
Total Dipole Moment    :      0.32263      -0.75472       0.80849
                        -----------------------------------------
Magnitude (a.u.)       :      1.15211
Magnitude (Debye)      :      2.92842


                         *** MP2 UNRELAXED DENSITY ***

------------------------------------------------------------------------------
                       ORCA ELECTRIC PROPERTIES CALCULATION
------------------------------------------------------------------------------

Dipole Moment Calculation                       ... on
Quadrupole Moment Calculation                   ... off
Polarizability Calculation                      ... off
GBWName                                         ... dsgdb9nsd_080367.gbw
Electron density file                           ... dsgdb9nsd_080367.pmp2ur

-------------
DIPOLE MOMENT
-------------
                                X             Y             Z
Electronic contribution:      1.22210       0.00067      -4.13826
Nuclear contribution   :     -0.89873      -0.73996       4.94074
                        -----------------------------------------
Total Dipole Moment    :      0.32336      -0.73929       0.80248
                        -----------------------------------------
Magnitude (a.u.)       :      1.13802
Magnitude (Debye)      :      2.89261


                           *** MP2 RELAXED DENSITY ***

------------------------------------------------------------------------------
                       ORCA ELECTRIC PROPERTIES CALCULATION
------------------------------------------------------------------------------

Dipole Moment Calculation                       ... on
Quadrupole Moment Calculation                   ... off
Polarizability Calculation                      ... off
GBWName                                         ... dsgdb9nsd_080367.gbw
Electron density file                           ... dsgdb9nsd_080367.pmp2re

-------------
DIPOLE MOMENT
-------------
                                X             Y             Z
Electronic contribution:      1.22744       0.07335      -4.18747
Nuclear contribution   :     -0.89873      -0.73996       4.94074
                        -----------------------------------------
Total Dipole Moment    :      0.32870      -0.66660       0.75327
                        -----------------------------------------
Magnitude (a.u.)       :      1.05822
Magnitude (Debye)      :      2.68977


Timings for individual modules:

Sum of individual times         ...     1109.020 sec (=  18.484 min)
GTO integral calculation        ...        0.520 sec (=   0.009 min)   0.0 %
SCF iterations                  ...      140.535 sec (=   2.342 min)  12.7 %
MP2 module                      ...      967.965 sec (=  16.133 min)  87.3 %
                             ****ORCA TERMINATED NORMALLY****
TOTAL RUN TIME: 0 days 0 hours 18 minutes 29 seconds 570 msec
