
                                 *****************
                                 * O   R   C   A *
                                 *****************

           --- An Ab Initio, DFT and Semiempirical electronic structure package ---

                  #######################################################
                  #                        -***-                        #
                  #  Department of molecular theory and spectroscopy    #
                  #              Directorship: Frank Neese              #
                  # Max Planck Institute for Chemical Energy Conversion #
                  #                  D-45470 Muelheim/Ruhr              #
                  #                       Germany                       #
                  #                                                     #
                  #                  All rights reserved                #
                  #                        -***-                        #
                  #######################################################


                         Program Version 3.0.3 - RELEASE   -


 With contributions from (in alphabetic order):
   Ute Becker             : Parallelization
   Dmytro Bykov           : SCF Hessian
   Dmitry Ganyushin       : Spin-Orbit,Spin-Spin,Magnetic field MRCI
   Andreas Hansen         : Spin unrestricted coupled pair/coupled cluster methods
   Dimitrios Liakos       : Extrapolation schemes; parallel MDCI
   Robert Izsak           : Overlap fitted RIJCOSX, COSX-SCS-MP3
   Christian Kollmar      : KDIIS, OOCD, Brueckner-CCSD(T), CCSD density
   Simone Kossmann        : Meta GGA functionals, TD-DFT gradient, OOMP2, MP2 Hessian
   Taras Petrenko         : DFT Hessian,TD-DFT gradient, ASA and ECA modules, normal mode analysis, Resonance Raman, ABS, FL, XAS/XES, NRVS
   Christoph Reimann      : Effective Core Potentials
   Michael Roemelt        : Restricted open shell CIS
   Christoph Riplinger    : Improved optimizer, TS searches, QM/MM, DLPNO-CCSD
   Barbara Sandhoefer     : DKH picture change effects
   Igor Schapiro          : Molecular dynamics
   Kantharuban Sivalingam : CASSCF convergence, NEVPT2
   Boris Wezisla          : Elementary symmetry handling
   Frank Wennmohs         : Technical directorship


 We gratefully acknowledge several colleagues who have allowed us to
 interface, adapt or use parts of their codes:
   Stefan Grimme, W. Hujo, H. Kruse, T. Risthaus : VdW corrections, initial TS optimization,
                                                   DFT functionals, gCP
   Ed Valeev                                     : LibInt (2-el integral package), F12 methods
   Garnet Chan, S. Sharma, R. Olivares           : DMRG
   Ulf Ekstrom                                   : XCFun DFT Library
   Mihaly Kallay                                 : mrcc  (arbitrary order and MRCC methods)
   Andreas Klamt, Michael Diedenhofen            : otool_cosmo (COSMO solvation model)
   Frank Weinhold                                : gennbo (NPA and NBO analysis)
   Christopher J. Cramer and Donald G. Truhlar   : smd solvation model


 Your calculation uses the libint2 library for the computation of 2-el integrals
 For citations please refer to: http://libint.valeyev.net

 This ORCA versions uses:
   CBLAS   interface :  Fast vector & matrix operations
   LAPACKE interface :  Fast linear algebra routines
   SCALAPACK package :  Parallel linear algebra routines


Your calculation utilizes the basis: Ahlrichs-TZV
Cite in your paper:
H - Kr: A. Schaefer, H. Horn and R. Ahlrichs, J. Chem. Phys. 97, 2571 (1992).

The def2-TZV basis will be loaded
Cite in your paper:
 	F. Weigend, R. Ahlrichs, Phys. Chem. Chem. Phys. 2005, 7, 3297.

================================================================================
                                        WARNINGS
                       Please study these warnings very carefully!
================================================================================
Now building the actual basis set


INFO   : the flag for use of LIBINT has been found!

================================================================================
                                       INPUT FILE
================================================================================
NAME = dsgdb9nsd_020294.inp
|  1> ! RI-MP2 RIJK def2-TZVP def2-TZVP/C def2-TZVP/JK TIGHTSCF
|  2> % maxcore 2000
|  3> % mp2 density relaxed end
|  4> *xyz 0 1
|  5>  C        0.2120009401     1.5608007758     0.1949828757 
|  6>  N        1.1623966470     0.6120399493    -0.4115739307 
|  7>  C       -0.1689905346     0.1371463362    -0.0002489016 
|  8>  C       -0.3706155364    -0.7939724717     1.1682723734 
|  9>  C        0.1593954347    -2.2489915597     1.2847239058 
| 10>  C        1.5277994553    -1.6021386225     1.5914271293 
| 11>  N        0.5564082579    -0.7077726188     2.4018611379 
| 12>  C       -0.1003066721    -2.0472401520     2.7920261599 
| 13>  H        0.4908404149     1.8930006402     1.1900727599 
| 14>  H       -0.2519355889     2.3146546571    -0.4350123435 
| 15>  H        1.1845987221     0.7342903938    -1.4202311544 
| 16>  H       -0.8852142904    -0.0558524009    -0.7994794632 
| 17>  H       -1.4205251095    -0.6781958280     1.4702002212 
| 18>  H       -0.0729809248    -3.1170178496     0.6563332722 
| 19>  H        2.2116386301    -2.1655286943     2.2332327585 
| 20>  H        2.0492559044    -1.0679376251     0.8026507851 
| 21>  H       -1.1337457596    -1.9469611090     3.1375355117 
| 22>  H        0.5030389298    -2.6275938710     3.4947220630 
| 23> *
| 24> 
| 25>                          ****END OF INPUT****
================================================================================

                       ****************************
                       * Single Point Calculation *
                       ****************************

---------------------------------
CARTESIAN COORDINATES (ANGSTROEM)
---------------------------------
  C      0.212001    1.560801    0.194983
  N      1.162397    0.612040   -0.411574
  C     -0.168991    0.137146   -0.000249
  C     -0.370616   -0.793972    1.168272
  C      0.159395   -2.248992    1.284724
  C      1.527799   -1.602139    1.591427
  N      0.556408   -0.707773    2.401861
  C     -0.100307   -2.047240    2.792026
  H      0.490840    1.893001    1.190073
  H     -0.251936    2.314655   -0.435012
  H      1.184599    0.734290   -1.420231
  H     -0.885214   -0.055852   -0.799479
  H     -1.420525   -0.678196    1.470200
  H     -0.072981   -3.117018    0.656333
  H      2.211639   -2.165529    2.233233
  H      2.049256   -1.067938    0.802651
  H     -1.133746   -1.946961    3.137536
  H      0.503039   -2.627594    3.494722

----------------------------
CARTESIAN COORDINATES (A.U.)
----------------------------
  NO LB      ZA    FRAG    MASS        X           Y           Z
   0 C     6.0000    0    12.011          0.400623716922844          2.949486015873824          0.368464235877409
   1 N     7.0000    0    14.007          2.196611321818336          1.156587887196048         -0.777762012884484
   2 C     6.0000    0    12.011         -0.319345829618943          0.259169015688690         -0.000470355858295
   3 C     6.0000    0    12.011         -0.700361864772323         -1.500390529385541          2.207714835552187
   4 C     6.0000    0    12.011          0.301213718580328         -4.249978125333406          2.427776339663644
   5 C     6.0000    0    12.011          2.887122558071063         -3.027603225102845          3.007361436469485
   6 N     7.0000    0    14.007          1.051459226083226         -1.337496414620244          4.538859762339466
   7 C     6.0000    0    12.011         -0.189552139674040         -3.868723217647316          5.276164800954825
   8 H     1.0000    0     1.008          0.927553959621280          3.577252781315600          2.248911595650821
   9 H     1.0000    0     1.008         -0.476089266409171          4.374063396524404         -0.822054194090279
  10 H     1.0000    0     1.008          2.238567163362088          1.387607747051188         -2.683847928678828
  11 H     1.0000    0     1.008         -1.672812578689436         -0.105545741622977         -1.510797235142374
  12 H     1.0000    0     1.008         -2.684403423313498         -1.281604380087962          2.778275780098445
  13 H     1.0000    0     1.008         -0.137913960872302         -5.890310090288141          1.240290137038391
  14 H     1.0000    0     1.008          4.179391318089766         -4.092256167375075          4.220198306866497
  15 H     1.0000    0     1.008          3.872532437637110         -2.018109639549266          1.516790165015880
  16 H     1.0000    0     1.008         -2.142468991138521         -3.679223289405603          5.929082852565477
  17 H     1.0000    0     1.008          0.950605812022838         -4.965432807360006          6.604067613242291

--------------------------------
INTERNAL COORDINATES (ANGSTROEM)
--------------------------------
 C      0   0   0   0.000000     0.000     0.000
 N      1   0   0   1.473537     0.000     0.000
 C      2   1   0   1.472177    60.620     0.000
 C      3   2   1   1.507673   122.460   249.651
 C      4   3   2   1.552918   126.237   296.412
 C      5   4   3   1.544349    85.691    77.153
 N      4   3   2   1.545492   120.263    33.470
 C      7   4   3   1.541972    84.149   191.845
 H      1   2   3   1.085501   114.124   110.262
 H      1   2   3   1.086474   118.913   251.910
 H      2   1   3   1.016281   110.193   101.748
 H      3   2   1   1.090410   116.508   105.700
 H      4   3   2   1.098579   106.006   159.382
 H      5   4   3   1.096514   128.786   298.212
 H      6   5   4   1.094056   117.043   150.627
 H      6   5   4   1.086027   119.159   291.197
 H      8   7   4   1.094271   113.735   287.136
 H      8   7   4   1.092986   112.881   158.768

---------------------------
INTERNAL COORDINATES (A.U.)
---------------------------
 C      0   0   0   0.000000     0.000     0.000
 N      1   0   0   2.784581     0.000     0.000
 C      2   1   0   2.782011    60.620     0.000
 C      3   2   1   2.849088   122.460   249.651
 C      4   3   2   2.934589   126.237   296.412
 C      5   4   3   2.918397    85.691    77.153
 N      4   3   2   2.920556   120.263    33.470
 C      7   4   3   2.913904    84.149   191.845
 H      1   2   3   2.051299   114.124   110.262
 H      1   2   3   2.053139   118.913   251.910
 H      2   1   3   1.920493   110.193   101.748
 H      3   2   1   2.060577   116.508   105.700
 H      4   3   2   2.076013   106.006   159.382
 H      5   4   3   2.072111   128.786   298.212
 H      6   5   4   2.067466   117.043   150.627
 H      6   5   4   2.052294   119.159   291.197
 H      8   7   4   2.067872   113.735   287.136
 H      8   7   4   2.065444   112.881   158.768

---------------------
BASIS SET INFORMATION
---------------------
There are 3 groups of distinct atoms

 Group   1 Type C   : 11s6p2d1f contracted to 5s3p2d1f pattern {62111/411/11/1}
 Group   2 Type N   : 11s6p2d1f contracted to 5s3p2d1f pattern {62111/411/11/1}
 Group   3 Type H   : 5s1p contracted to 3s1p pattern {311/1}

Atom   0C    basis set group =>   1
Atom   1N    basis set group =>   2
Atom   2C    basis set group =>   1
Atom   3C    basis set group =>   1
Atom   4C    basis set group =>   1
Atom   5C    basis set group =>   1
Atom   6N    basis set group =>   2
Atom   7C    basis set group =>   1
Atom   8H    basis set group =>   3
Atom   9H    basis set group =>   3
Atom  10H    basis set group =>   3
Atom  11H    basis set group =>   3
Atom  12H    basis set group =>   3
Atom  13H    basis set group =>   3
Atom  14H    basis set group =>   3
Atom  15H    basis set group =>   3
Atom  16H    basis set group =>   3
Atom  17H    basis set group =>   3
-------------------------------
AUXILIARY BASIS SET INFORMATION
-------------------------------
There are 3 groups of distinct atoms

 Group   1 Type C   : 14s10p6d2f1g contracted to 10s8p5d1f1g pattern {5111111111/31111111/21111/2/1}
 Group   2 Type N   : 14s10p6d2f1g contracted to 10s8p4d2f1g pattern {5111111111/31111111/3111/11/1}
 Group   3 Type H   : 4s2p2d contracted to 2s2p2d pattern {31/11/11}

Atom   0C    basis set group =>   1
Atom   1N    basis set group =>   2
Atom   2C    basis set group =>   1
Atom   3C    basis set group =>   1
Atom   4C    basis set group =>   1
Atom   5C    basis set group =>   1
Atom   6N    basis set group =>   2
Atom   7C    basis set group =>   1
Atom   8H    basis set group =>   3
Atom   9H    basis set group =>   3
Atom  10H    basis set group =>   3
Atom  11H    basis set group =>   3
Atom  12H    basis set group =>   3
Atom  13H    basis set group =>   3
Atom  14H    basis set group =>   3
Atom  15H    basis set group =>   3
Atom  16H    basis set group =>   3
Atom  17H    basis set group =>   3
------------------------------------------------------------------------------
                           ORCA GTO INTEGRAL CALCULATION
                           -- RI-GTO INTEGRALS CHOSEN --
------------------------------------------------------------------------------

                         BASIS SET STATISTICS AND STARTUP INFO

Gaussian basis set:
 # of primitive gaussian shells          ...  220
 # of primitive gaussian functions       ...  448
 # of contracted shells                  ...  128
 # of contracted basis functions         ...  308
 Highest angular momentum                ...    3
 Maximum contraction depth               ...    6
Auxiliary gaussian basis set:
 # of primitive gaussian shells          ...  344
 # of primitive gaussian functions       ...  976
 # of contracted shells                  ...  260
 # of contracted aux-basis functions     ...  784
 Highest angular momentum                ...    4
 Maximum contraction depth               ...    5
Ratio of auxiliary to basis functions    ...  2.55
Integral package used                  ... LIBINT
 One Electron integrals                  ... done
 Ordering auxiliary basis shells         ... done
 Integral threshhold             Thresh  ...  2.500e-11
 Primitive cut-off               TCut    ...  2.500e-12
 Pre-screening matrix                    ... done
 Shell pair data                         ... 
 Ordering of the shell pairs             ... done (   0.001 sec) 7734 of 8256 pairs
 Determination of significant pairs      ... done (   0.000 sec)
 Creation of shell pair data             ... done (   0.002 sec)
 Storage of shell pair data              ... done (   0.001 sec)
 Shell pair data done in (   0.005 sec)
 Computing two index integrals           ... done
 Cholesky decomposition of the V-matrix  ... done


Timings:
 Total evaluation time                   ...   0.336 sec (  0.006 min)
 One electron matrix time                ...   0.077 sec (  0.001 min) = 23.0%
 Schwartz matrix evaluation time         ...   0.183 sec (  0.003 min) = 54.4%
 Two index repulsion integral time       ...   0.019 sec (  0.000 min) =  5.6%
 Cholesky decomposition of V             ...   0.025 sec (  0.000 min) =  7.4%
 Three index repulsion integral time     ...   0.000 sec (  0.000 min) =  0.0%

-------------------------------------------------------------------------------
                                 ORCA SCF
-------------------------------------------------------------------------------

------------
SCF SETTINGS
------------
Hamiltonian:
 Ab initio Hamiltonian  Method          .... Hartree-Fock(GTOs)
 RI-approximation to the Coulomb term is turned on
   Number of auxiliary basis functions  .... 784
   RI-JK (J+K treated both via RI)      .... on


General Settings:
 Integral files         IntName         .... dsgdb9nsd_020294
 Hartree-Fock type      HFTyp           .... RHF
 Total Charge           Charge          ....    0
 Multiplicity           Mult            ....    1
 Number of Electrons    NEL             ....   60
 Basis Dimension        Dim             ....  308
 Nuclear Repulsion      ENuc            ....    382.0358010648 Eh

Convergence Acceleration:
 DIIS                   CNVDIIS         .... on
   Start iteration      DIISMaxIt       ....    12
   Startup error        DIISStart       ....  0.200000
   # of expansion vecs  DIISMaxEq       ....     5
   Bias factor          DIISBfac        ....   1.050
   Max. coefficient     DIISMaxC        ....  10.000
 Newton-Raphson         CNVNR           .... off
 SOSCF                  CNVSOSCF        .... on
   Start iteration      SOSCFMaxIt      ....   150
   Startup grad/error   SOSCFStart      ....  0.003300
 Level Shifting         CNVShift        .... on
   Level shift para.    LevelShift      ....    0.2500
   Turn off err/grad.   ShiftErr        ....    0.0010
 Zerner damping         CNVZerner       .... off
 Static damping         CNVDamp         .... on
   Fraction old density DampFac         ....    0.7000
   Max. Damping (<1)    DampMax         ....    0.9800
   Min. Damping (>=0)   DampMin         ....    0.0000
   Turn off err/grad.   DampErr         ....    0.1000
 Fernandez-Rico         CNVRico         .... off

SCF Procedure:
 Maximum # iterations   MaxIter         ....   125
 SCF integral mode      SCFMode         .... Direct
   Integral package                     .... LIBINT
 Reset frequeny         DirectResetFreq ....    20
 Integral Threshold     Thresh          ....  2.500e-11 Eh
 Primitive CutOff       TCut            ....  2.500e-12 Eh

Convergence Tolerance:
 Convergence Check Mode ConvCheckMode   .... Total+1el-Energy
 Energy Change          TolE            ....  1.000e-08 Eh
 1-El. energy change                    ....  1.000e-05 Eh
 Orbital Gradient       TolG            ....  1.000e-05
 Orbital Rotation angle TolX            ....  1.000e-05
 DIIS Error             TolErr          ....  5.000e-07


Diagonalization of the overlap matrix:
Smallest eigenvalue                        ... 7.431e-05
Time for diagonalization                   ...    0.025 sec
Threshold for overlap eigenvalues          ... 1.000e-08
Number of eigenvalues below threshold      ... 0
Time for construction of square roots      ...    0.013 sec
Total time needed                          ...    0.038 sec

-------------------
DFT GRID GENERATION
-------------------

General Integration Accuracy     IntAcc      ...  4.340
Radial Grid Type                 RadialGrid  ... Gauss-Chebyshev
Angular Grid (max. acc.)         AngularGrid ... Lebedev-110
Angular grid pruning method      GridPruning ... 3 (G Style)
Weight generation scheme         WeightScheme... Becke
Basis function cutoff            BFCut       ...    1.0000e-11
Integration weight cutoff        WCut        ...    1.0000e-14
Grids for H and He will be reduced by one unit

# of grid points (after initial pruning)     ...  21280 (   0.0 sec)
# of grid points (after weights+screening)   ...  19453 (   0.1 sec)
nearest neighbour list constructed           ...    0.0 sec
Grid point re-assignment to atoms done       ...    0.0 sec
Grid point division into batches done        ...    0.0 sec
Reduced shell lists constructed in    1.1 sec

Total number of grid points                  ...    19453
Total number of batches                      ...      309
Average number of points per batch           ...       62
Average number of grid points per atom       ...     1081
Average number of shells per batch           ...    90.97 (71.07%)
Average number of basis functions per batch  ...   226.59 (73.57%)
Average number of large shells per batch     ...    72.19 (79.35%)
Average number of large basis fcns per batch ...   178.14 (78.61%)
Average number of aux-shells per batch       ...    90.97 (34.99%)
Average number of aux functions per batch    ...   226.59 (  inf%)
Maximum spatial batch extension              ...  22.44, 23.17, 20.44 au
Average spatial batch extension              ...   3.84,  3.83,  3.72 au

Time for grid setup =    1.210 sec

------------------------------
INITIAL GUESS: MODEL POTENTIAL
------------------------------
Loading Hartree-Fock densities                     ... done
Calculating cut-offs                               ... done
Setting up the integral package                    ... done
Initializing the effective Hamiltonian             ... done
Starting the Coulomb interaction                   ... done (   0.6 sec)
Reading the grid                                   ... done
Mapping shells                                     ... done
Starting the XC term evaluation                    ... done (   0.6 sec)
Transforming the Hamiltonian                       ... done (   0.0 sec)
Diagonalizing the Hamiltonian                      ... done (   0.0 sec)
Back transforming the eigenvectors                 ... done (   0.0 sec)
Now organizing SCF variables                       ... done
                      ------------------
                      INITIAL GUESS DONE (   2.6 sec)
                      ------------------
--------------
SCF ITERATIONS
--------------
ITER       Energy         Delta-E        Max-DP      RMS-DP      [F,P]     Damp
  0   -341.5460352744   0.000000000000 0.03233378  0.00090632  0.2616078 0.7000
  1   -341.4431946374   0.102840637034 0.03221822  0.00097868  0.2417137 0.7000
                               ***Turning on DIIS***
  2   -341.4769425429  -0.033747905543 0.02164017  0.00070206  0.1610777 0.7000
  3   -342.4646715192  -0.987728976287 0.01437871  0.00035222  0.1144598 0.7000
  4   -341.7867000867   0.677971432548 0.03577885  0.00087503  0.0759421 0.0000
  5   -342.0158271530  -0.229127066393 0.01067324  0.00020886  0.0140859 0.0000
  6   -341.8319360067   0.183891146318 0.00565100  0.00012633  0.0083897 0.0000
  7   -341.8377407173  -0.005804710526 0.00213067  0.00005090  0.0046581 0.0000
  8   -341.8215280985   0.016212618715 0.00136101  0.00004044  0.0036770 0.0000
                      *** Initiating the SOSCF procedure ***
                           *** Shutting down DIIS ***
                      *** Re-Reading the Fockian *** 
                      *** Removing any level shift *** 
ITER      Energy       Delta-E        Grad      Rot      Max-DP    RMS-DP
  9   -341.86865212  -0.0471240201  0.000079  0.000079  0.000445  0.000012
 10   -341.87072881  -0.0020766886  0.000027  0.000042  0.000112  0.000003
 11   -341.87072890  -0.0000000956  0.000014  0.000021  0.000053  0.000002
 12   -341.87072893  -0.0000000304  0.000004  0.000011  0.000017  0.000000
                  ***Gradient check signals convergence***
              ***Rediagonalizing the Fockian in SOSCF/NRSCF***

               *****************************************************
               *                     SUCCESS                       *
               *           SCF CONVERGED AFTER  13 CYCLES          *
               *****************************************************


----------------
TOTAL SCF ENERGY
----------------

Total Energy       :         -341.87072893 Eh           -9302.77548 eV

Components:
Nuclear Repulsion  :          382.03580106 Eh           10395.72266 eV
Electronic Energy  :         -723.90653000 Eh          -19698.49813 eV

One Electron Energy:        -1220.47649122 Eh          -33210.85373 eV
Two Electron Energy:          496.56996122 Eh           13512.35560 eV

Virial components:
Potential Energy   :         -683.18267430 Eh          -18590.34568 eV
Kinetic Energy     :          341.31194537 Eh            9287.57020 eV
Virial Ratio       :            2.00163716


---------------
SCF CONVERGENCE
---------------

  Last Energy change         ...   -1.6626e-09  Tolerance :   1.0000e-08
  Last MAX-Density change    ...    7.2872e-06  Tolerance :   1.0000e-07
  Last RMS-Density change    ...    1.6943e-07  Tolerance :   5.0000e-09
  Last Orbital Gradient      ...    1.1926e-06  Tolerance :   1.0000e-05
  Last Orbital Rotation      ...    3.7150e-06  Tolerance :   1.0000e-05

             **** THE GBW FILE WAS UPDATED (dsgdb9nsd_020294.gbw) ****
             **** DENSITY FILE WAS UPDATED (dsgdb9nsd_020294.scfp.tmp) ****
             **** ENERGY FILE WAS UPDATED (dsgdb9nsd_020294.en.tmp) ****
----------------
ORBITAL ENERGIES
----------------

  NO   OCC          E(Eh)            E(eV) 
   0   2.0000     -15.561048      -423.4377 
   1   2.0000     -15.558652      -423.3724 
   2   2.0000     -11.263768      -306.5027 
   3   2.0000     -11.262945      -306.4803 
   4   2.0000     -11.253710      -306.2290 
   5   2.0000     -11.252748      -306.2028 
   6   2.0000     -11.243314      -305.9461 
   7   2.0000     -11.242483      -305.9235 
   8   2.0000      -1.289185       -35.0805 
   9   2.0000      -1.255027       -34.1510 
  10   2.0000      -0.967687       -26.3321 
  11   2.0000      -0.919591       -25.0234 
  12   2.0000      -0.910988       -24.7892 
  13   2.0000      -0.877337       -23.8735 
  14   2.0000      -0.816795       -22.2261 
  15   2.0000      -0.727184       -19.7877 
  16   2.0000      -0.706269       -19.2186 
  17   2.0000      -0.642537       -17.4843 
  18   2.0000      -0.632163       -17.2020 
  19   2.0000      -0.625256       -17.0141 
  20   2.0000      -0.563106       -15.3229 
  21   2.0000      -0.514874       -14.0104 
  22   2.0000      -0.504280       -13.7222 
  23   2.0000      -0.488620       -13.2960 
  24   2.0000      -0.480970       -13.0879 
  25   2.0000      -0.467320       -12.7164 
  26   2.0000      -0.456721       -12.4280 
  27   2.0000      -0.435451       -11.8492 
  28   2.0000      -0.385455       -10.4888 
  29   2.0000      -0.362784        -9.8719 
  30   0.0000       0.136645         3.7183 
  31   0.0000       0.159724         4.3463 
  32   0.0000       0.166792         4.5387 
  33   0.0000       0.171256         4.6601 
  34   0.0000       0.193313         5.2603 
  35   0.0000       0.200633         5.4595 
  36   0.0000       0.209934         5.7126 
  37   0.0000       0.221240         6.0203 
  38   0.0000       0.242681         6.6037 
  39   0.0000       0.247051         6.7226 
  40   0.0000       0.252170         6.8619 
  41   0.0000       0.262639         7.1468 
  42   0.0000       0.272858         7.4248 
  43   0.0000       0.280672         7.6375 
  44   0.0000       0.286340         7.7917 
  45   0.0000       0.293617         7.9897 
  46   0.0000       0.305211         8.3052 
  47   0.0000       0.318619         8.6701 
  48   0.0000       0.340638         9.2692 
  49   0.0000       0.355864         9.6835 
  50   0.0000       0.382996        10.4219 
  51   0.0000       0.392195        10.6722 
  52   0.0000       0.402875        10.9628 
  53   0.0000       0.417009        11.3474 
  54   0.0000       0.434498        11.8233 
  55   0.0000       0.464333        12.6351 
  56   0.0000       0.482216        13.1218 
  57   0.0000       0.484130        13.1738 
  58   0.0000       0.498378        13.5616 
  59   0.0000       0.512664        13.9503 
  60   0.0000       0.519074        14.1247 
  61   0.0000       0.533500        14.5173 
  62   0.0000       0.550229        14.9725 
  63   0.0000       0.557420        15.1682 
  64   0.0000       0.565394        15.3851 
  65   0.0000       0.569513        15.4972 
  66   0.0000       0.576738        15.6938 
  67   0.0000       0.587233        15.9794 
  68   0.0000       0.589345        16.0369 
  69   0.0000       0.602449        16.3935 
  70   0.0000       0.605875        16.4867 
  71   0.0000       0.615310        16.7434 
  72   0.0000       0.626029        17.0351 
  73   0.0000       0.631274        17.1778 
  74   0.0000       0.641471        17.4553 
  75   0.0000       0.667447        18.1622 
  76   0.0000       0.679420        18.4880 
  77   0.0000       0.687450        18.7065 
  78   0.0000       0.699637        19.0381 
  79   0.0000       0.706723        19.2309 
  80   0.0000       0.709904        19.3175 
  81   0.0000       0.724767        19.7219 
  82   0.0000       0.738698        20.1010 
  83   0.0000       0.762538        20.7497 
  84   0.0000       0.772231        21.0135 
  85   0.0000       0.779900        21.2222 
  86   0.0000       0.802360        21.8333 
  87   0.0000       0.845591        23.0097 
  88   0.0000       0.867874        23.6160 
  89   0.0000       0.896694        24.4003 
  90   0.0000       0.931510        25.3477 
  91   0.0000       0.950250        25.8576 
  92   0.0000       0.988006        26.8850 
  93   0.0000       1.016589        27.6628 
  94   0.0000       1.029142        28.0044 
  95   0.0000       1.066914        29.0322 
  96   0.0000       1.113511        30.3002 
  97   0.0000       1.121902        30.5285 
  98   0.0000       1.148574        31.2543 
  99   0.0000       1.160476        31.5781 
 100   0.0000       1.184214        32.2241 
 101   0.0000       1.191787        32.4302 
 102   0.0000       1.213993        33.0344 
 103   0.0000       1.246563        33.9207 
 104   0.0000       1.253759        34.1165 
 105   0.0000       1.259261        34.2662 
 106   0.0000       1.279734        34.8233 
 107   0.0000       1.287351        35.0306 
 108   0.0000       1.302771        35.4502 
 109   0.0000       1.337038        36.3827 
 110   0.0000       1.339865        36.4596 
 111   0.0000       1.364434        37.1281 
 112   0.0000       1.375161        37.4200 
 113   0.0000       1.387549        37.7571 
 114   0.0000       1.395103        37.9627 
 115   0.0000       1.430534        38.9268 
 116   0.0000       1.440374        39.1946 
 117   0.0000       1.483061        40.3562 
 118   0.0000       1.508374        41.0449 
 119   0.0000       1.519294        41.3421 
 120   0.0000       1.534229        41.7485 
 121   0.0000       1.563826        42.5539 
 122   0.0000       1.627588        44.2889 
 123   0.0000       1.639862        44.6229 
 124   0.0000       1.668965        45.4149 
 125   0.0000       1.687458        45.9181 
 126   0.0000       1.699162        46.2366 
 127   0.0000       1.722053        46.8594 
 128   0.0000       1.749092        47.5952 
 129   0.0000       1.759349        47.8743 
 130   0.0000       1.790949        48.7342 
 131   0.0000       1.816835        49.4386 
 132   0.0000       1.869112        50.8611 
 133   0.0000       1.884078        51.2684 
 134   0.0000       1.890291        51.4374 
 135   0.0000       1.906886        51.8890 
 136   0.0000       1.920451        52.2581 
 137   0.0000       1.934942        52.6525 
 138   0.0000       1.948352        53.0174 
 139   0.0000       1.962921        53.4138 
 140   0.0000       1.968225        53.5581 
 141   0.0000       1.997733        54.3611 
 142   0.0000       2.028647        55.2023 
 143   0.0000       2.049033        55.7570 
 144   0.0000       2.088847        56.8404 
 145   0.0000       2.099101        57.1195 
 146   0.0000       2.126703        57.8705 
 147   0.0000       2.135827        58.1188 
 148   0.0000       2.158957        58.7482 
 149   0.0000       2.178653        59.2842 
 150   0.0000       2.191746        59.6404 
 151   0.0000       2.208923        60.1079 
 152   0.0000       2.226942        60.5982 
 153   0.0000       2.254547        61.3493 
 154   0.0000       2.293935        62.4211 
 155   0.0000       2.308128        62.8074 
 156   0.0000       2.326824        63.3161 
 157   0.0000       2.360616        64.2356 
 158   0.0000       2.405923        65.4685 
 159   0.0000       2.437837        66.3369 
 160   0.0000       2.448088        66.6159 
 161   0.0000       2.448739        66.6336 
 162   0.0000       2.494890        67.8894 
 163   0.0000       2.507771        68.2399 
 164   0.0000       2.515355        68.4463 
 165   0.0000       2.528719        68.8099 
 166   0.0000       2.548816        69.3568 
 167   0.0000       2.601363        70.7867 
 168   0.0000       2.638132        71.7872 
 169   0.0000       2.648599        72.0720 
 170   0.0000       2.667953        72.5987 
 171   0.0000       2.687340        73.1262 
 172   0.0000       2.702462        73.5377 
 173   0.0000       2.729607        74.2764 
 174   0.0000       2.765490        75.2528 
 175   0.0000       2.787169        75.8427 
 176   0.0000       2.804505        76.3145 
 177   0.0000       2.819231        76.7152 
 178   0.0000       2.844283        77.3969 
 179   0.0000       2.858794        77.7917 
 180   0.0000       2.873101        78.1810 
 181   0.0000       2.885372        78.5150 
 182   0.0000       2.907036        79.1045 
 183   0.0000       2.917392        79.3863 
 184   0.0000       2.928949        79.7008 
 185   0.0000       2.945471        80.1504 
 186   0.0000       2.954749        80.4028 
 187   0.0000       2.964273        80.6620 
 188   0.0000       2.968471        80.7762 
 189   0.0000       2.976652        80.9988 
 190   0.0000       2.993688        81.4624 
 191   0.0000       3.030068        82.4523 
 192   0.0000       3.037275        82.6485 
 193   0.0000       3.076483        83.7154 
 194   0.0000       3.085297        83.9552 
 195   0.0000       3.097473        84.2865 
 196   0.0000       3.112017        84.6823 
 197   0.0000       3.139443        85.4286 
 198   0.0000       3.158480        85.9466 
 199   0.0000       3.170638        86.2774 
 200   0.0000       3.190439        86.8163 
 201   0.0000       3.243030        88.2473 
 202   0.0000       3.299833        89.7930 
 203   0.0000       3.323130        90.4270 
 204   0.0000       3.334450        90.7350 
 205   0.0000       3.359342        91.4124 
 206   0.0000       3.384772        92.1043 
 207   0.0000       3.398118        92.4675 
 208   0.0000       3.405006        92.6549 
 209   0.0000       3.429597        93.3241 
 210   0.0000       3.434290        93.4518 
 211   0.0000       3.470465        94.4361 
 212   0.0000       3.474180        94.5372 
 213   0.0000       3.501173        95.2718 
 214   0.0000       3.512973        95.5928 
 215   0.0000       3.527078        95.9767 
 216   0.0000       3.549122        96.5765 
 217   0.0000       3.558167        96.8227 
 218   0.0000       3.564859        97.0047 
 219   0.0000       3.590332        97.6979 
 220   0.0000       3.614484        98.3551 
 221   0.0000       3.637631        98.9850 
 222   0.0000       3.660169        99.5983 
 223   0.0000       3.689938       100.4083 
 224   0.0000       3.716948       101.1433 
 225   0.0000       3.738556       101.7313 
 226   0.0000       3.748716       102.0078 
 227   0.0000       3.759434       102.2994 
 228   0.0000       3.771630       102.6313 
 229   0.0000       3.818613       103.9097 
 230   0.0000       3.839609       104.4811 
 231   0.0000       3.849189       104.7418 
 232   0.0000       3.863399       105.1284 
 233   0.0000       3.893667       105.9521 
 234   0.0000       3.902315       106.1874 
 235   0.0000       3.926449       106.8441 
 236   0.0000       3.959863       107.7534 
 237   0.0000       3.989504       108.5599 
 238   0.0000       4.035606       109.8144 
 239   0.0000       4.045318       110.0787 
 240   0.0000       4.076628       110.9307 
 241   0.0000       4.101100       111.5966 
 242   0.0000       4.134701       112.5109 
 243   0.0000       4.146760       112.8391 
 244   0.0000       4.149863       112.9235 
 245   0.0000       4.176836       113.6575 
 246   0.0000       4.215194       114.7012 
 247   0.0000       4.248651       115.6117 
 248   0.0000       4.319315       117.5345 
 249   0.0000       4.349897       118.3667 
 250   0.0000       4.363968       118.7496 
 251   0.0000       4.376163       119.0815 
 252   0.0000       4.388045       119.4048 
 253   0.0000       4.437926       120.7621 
 254   0.0000       4.473608       121.7331 
 255   0.0000       4.492830       122.2561 
 256   0.0000       4.516732       122.9065 
 257   0.0000       4.542846       123.6171 
 258   0.0000       4.577959       124.5726 
 259   0.0000       4.632260       126.0502 
 260   0.0000       4.654047       126.6431 
 261   0.0000       4.684351       127.4677 
 262   0.0000       4.717627       128.3732 
 263   0.0000       4.761918       129.5784 
 264   0.0000       4.781411       130.1088 
 265   0.0000       4.820885       131.1829 
 266   0.0000       4.890380       133.0740 
 267   0.0000       4.916627       133.7882 
 268   0.0000       4.961631       135.0128 
 269   0.0000       5.035819       137.0316 
 270   0.0000       5.067571       137.8956 
 271   0.0000       5.114150       139.1631 
 272   0.0000       5.130580       139.6102 
 273   0.0000       5.148263       140.0914 
 274   0.0000       5.180913       140.9798 
 275   0.0000       5.192796       141.3032 
 276   0.0000       5.213672       141.8712 
 277   0.0000       5.231056       142.3443 
 278   0.0000       5.276622       143.5842 
 279   0.0000       5.281859       143.7267 
 280   0.0000       5.332157       145.0954 
 281   0.0000       5.365580       146.0048 
 282   0.0000       5.398897       146.9115 
 283   0.0000       5.452119       148.3597 
 284   0.0000       5.501768       149.7107 
 285   0.0000       5.522986       150.2881 
 286   0.0000       5.582286       151.9017 
 287   0.0000       5.658627       153.9791 
 288   0.0000       5.670744       154.3088 
 289   0.0000       5.687291       154.7591 
 290   0.0000       5.766794       156.9225 
 291   0.0000       5.780176       157.2866 
 292   0.0000       5.805722       157.9817 
 293   0.0000       5.844251       159.0302 
 294   0.0000       5.900789       160.5686 
 295   0.0000       6.027639       164.0204 
 296   0.0000       6.090498       165.7309 
 297   0.0000       6.178085       168.1142 
 298   0.0000       6.225433       169.4026 
 299   0.0000       6.310550       171.7188 
 300   0.0000      23.375989       636.0930 
 301   0.0000      23.460987       638.4059 
 302   0.0000      23.629764       642.9986 
 303   0.0000      23.661101       643.8513 
 304   0.0000      23.758471       646.5008 
 305   0.0000      23.946523       651.6180 
 306   0.0000      33.403169       908.9464 
 307   0.0000      33.902430       922.5320 

                    ********************************
                    * MULLIKEN POPULATION ANALYSIS *
                    ********************************

-----------------------
MULLIKEN ATOMIC CHARGES
-----------------------
   0 C :   -0.112266
   1 N :   -0.451390
   2 C :   -0.037960
   3 C :    0.048641
   4 C :   -0.068596
   5 C :   -0.134733
   6 N :   -0.306639
   7 C :   -0.100028
   8 H :    0.126583
   9 H :    0.107649
  10 H :    0.210570
  11 H :    0.102341
  12 H :    0.076054
  13 H :    0.104604
  14 H :    0.087780
  15 H :    0.156410
  16 H :    0.091906
  17 H :    0.099073
Sum of atomic charges:   -0.0000000

--------------------------------
MULLIKEN REDUCED ORBITAL CHARGES
--------------------------------
  0 C s       :     3.207892  s :     3.207892
      pz      :     1.029139  p :     2.790739
      px      :     0.901055
      py      :     0.860545
      dz2     :     0.019761  d :     0.103255
      dxz     :     0.014811
      dyz     :     0.020887
      dx2y2   :     0.022495
      dxy     :     0.025300
      f0      :     0.001124  f :     0.010380
      f+1     :     0.001023
      f-1     :     0.001417
      f+2     :     0.001083
      f-2     :     0.001821
      f+3     :     0.001918
      f-3     :     0.001994
  1 N s       :     3.624063  s :     3.624063
      pz      :     1.195472  p :     3.756635
      px      :     1.316167
      py      :     1.244996
      dz2     :     0.018763  d :     0.066842
      dxz     :     0.009608
      dyz     :     0.005285
      dx2y2   :     0.013003
      dxy     :     0.020184
      f0      :     0.000975  f :     0.003850
      f+1     :     0.000272
      f-1     :     0.000154
      f+2     :     0.000513
      f-2     :     0.000595
      f+3     :     0.000667
      f-3     :     0.000674
  2 C s       :     3.156331  s :     3.156331
      pz      :     0.966550  p :     2.731711
      px      :     0.825890
      py      :     0.939270
      dz2     :     0.021863  d :     0.137674
      dxz     :     0.032833
      dyz     :     0.021962
      dx2y2   :     0.038131
      dxy     :     0.022886
      f0      :     0.000990  f :     0.012244
      f+1     :     0.001769
      f-1     :     0.001578
      f+2     :     0.002045
      f-2     :     0.001307
      f+3     :     0.002471
      f-3     :     0.002084
  3 C s       :     3.151425  s :     3.151425
      pz      :     0.814729  p :     2.640905
      px      :     0.909905
      py      :     0.916270
      dz2     :     0.036585  d :     0.147664
      dxz     :     0.026205
      dyz     :     0.028774
      dx2y2   :     0.041619
      dxy     :     0.014481
      f0      :     0.001422  f :     0.011365
      f+1     :     0.001887
      f-1     :     0.001856
      f+2     :     0.002385
      f-2     :     0.001172
      f+3     :     0.001455
      f-3     :     0.001188
  4 C s       :     3.151906  s :     3.151906
      pz      :     0.940661  p :     2.794466
      px      :     0.929724
      py      :     0.924080
      dz2     :     0.026250  d :     0.112066
      dxz     :     0.014232
      dyz     :     0.024930
      dx2y2   :     0.026266
      dxy     :     0.020386
      f0      :     0.001906  f :     0.010158
      f+1     :     0.000943
      f-1     :     0.001831
      f+2     :     0.001354
      f-2     :     0.000911
      f+3     :     0.001496
      f-3     :     0.001718
  5 C s       :     3.229617  s :     3.229617
      pz      :     0.976244  p :     2.787472
      px      :     0.906969
      py      :     0.904259
      dz2     :     0.010489  d :     0.108586
      dxz     :     0.032148
      dyz     :     0.023745
      dx2y2   :     0.009688
      dxy     :     0.032516
      f0      :     0.000742  f :     0.009058
      f+1     :     0.001102
      f-1     :     0.000809
      f+2     :     0.001128
      f-2     :     0.002582
      f+3     :     0.001015
      f-3     :     0.001681
  6 N s       :     3.610184  s :     3.610184
      pz      :     1.210869  p :     3.614069
      px      :     1.078248
      py      :     1.324952
      dz2     :     0.014752  d :     0.078554
      dxz     :     0.021164
      dyz     :     0.011571
      dx2y2   :     0.011501
      dxy     :     0.019566
      f0      :     0.000384  f :     0.003832
      f+1     :     0.000566
      f-1     :     0.000513
      f+2     :     0.000634
      f-2     :     0.000733
      f+3     :     0.000575
      f-3     :     0.000427
  7 C s       :     3.213810  s :     3.213810
      pz      :     0.935620  p :     2.768090
      px      :     0.993855
      py      :     0.838615
      dz2     :     0.021833  d :     0.108811
      dxz     :     0.020194
      dyz     :     0.022432
      dx2y2   :     0.025468
      dxy     :     0.018884
      f0      :     0.002009  f :     0.009317
      f+1     :     0.001140
      f-1     :     0.001350
      f+2     :     0.001126
      f-2     :     0.001230
      f+3     :     0.001441
      f-3     :     0.001020
  8 H s       :     0.850231  s :     0.850231
      pz      :     0.014548  p :     0.023186
      px      :     0.004363
      py      :     0.004276
  9 H s       :     0.869949  s :     0.869949
      pz      :     0.006818  p :     0.022401
      px      :     0.006053
      py      :     0.009530
 10 H s       :     0.752320  s :     0.752320
      pz      :     0.021185  p :     0.037111
      px      :     0.008301
      py      :     0.007624
 11 H s       :     0.874780  s :     0.874780
      pz      :     0.009830  p :     0.022879
      px      :     0.008818
      py      :     0.004232
 12 H s       :     0.901405  s :     0.901405
      pz      :     0.004175  p :     0.022540
      px      :     0.014581
      py      :     0.003785
 13 H s       :     0.873994  s :     0.873994
      pz      :     0.007070  p :     0.021402
      px      :     0.003716
      py      :     0.010616
 14 H s       :     0.890254  s :     0.890254
      pz      :     0.007077  p :     0.021967
      px      :     0.008606
      py      :     0.006284
 15 H s       :     0.819119  s :     0.819119
      pz      :     0.010651  p :     0.024471
      px      :     0.006371
      py      :     0.007449
 16 H s       :     0.886050  s :     0.886050
      pz      :     0.004864  p :     0.022044
      px      :     0.014074
      py      :     0.003106
 17 H s       :     0.878741  s :     0.878741
      pz      :     0.008934  p :     0.022187
      px      :     0.006540
      py      :     0.006713


                     *******************************
                     * LOEWDIN POPULATION ANALYSIS *
                     *******************************

----------------------
LOEWDIN ATOMIC CHARGES
----------------------
   0 C :   -0.227524
   1 N :   -0.037563
   2 C :   -0.247455
   3 C :   -0.200765
   4 C :   -0.187516
   5 C :   -0.192073
   6 N :    0.071728
   7 C :   -0.206658
   8 H :    0.124128
   9 H :    0.109880
  10 H :    0.157125
  11 H :    0.132124
  12 H :    0.139286
  13 H :    0.108296
  14 H :    0.110529
  15 H :    0.121761
  16 H :    0.111148
  17 H :    0.113548

-------------------------------
LOEWDIN REDUCED ORBITAL CHARGES
-------------------------------
  0 C s       :     2.791094  s :     2.791094
      pz      :     1.014078  p :     2.947541
      px      :     0.954170
      py      :     0.979293
      dz2     :     0.081185  d :     0.432271
      dxz     :     0.049547
      dyz     :     0.108777
      dx2y2   :     0.089050
      dxy     :     0.103712
      f0      :     0.005188  f :     0.056617
      f+1     :     0.006829
      f-1     :     0.005966
      f+2     :     0.007496
      f-2     :     0.007766
      f+3     :     0.010700
      f-3     :     0.012673
  1 N s       :     3.098365  s :     3.098365
      pz      :     1.174349  p :     3.737365
      px      :     1.360364
      py      :     1.202652
      dz2     :     0.053711  d :     0.185830
      dxz     :     0.030952
      dyz     :     0.017479
      dx2y2   :     0.044089
      dxy     :     0.039598
      f0      :     0.003169  f :     0.016003
      f+1     :     0.001364
      f-1     :     0.001097
      f+2     :     0.002189
      f-2     :     0.001909
      f+3     :     0.003371
      f-3     :     0.002904
  2 C s       :     2.732468  s :     2.732468
      pz      :     0.993030  p :     2.876778
      px      :     0.884136
      py      :     0.999612
      dz2     :     0.088676  d :     0.569316
      dxz     :     0.128308
      dyz     :     0.107899
      dx2y2   :     0.140161
      dxy     :     0.104272
      f0      :     0.007063  f :     0.068893
      f+1     :     0.010639
      f-1     :     0.007593
      f+2     :     0.009378
      f-2     :     0.006246
      f+3     :     0.016520
      f-3     :     0.011454
  3 C s       :     2.740077  s :     2.740077
      pz      :     0.913032  p :     2.806715
      px      :     0.934112
      py      :     0.959571
      dz2     :     0.139783  d :     0.590198
      dxz     :     0.092127
      dyz     :     0.135263
      dx2y2   :     0.156047
      dxy     :     0.066977
      f0      :     0.010078  f :     0.063776
      f+1     :     0.010406
      f-1     :     0.008638
      f+2     :     0.010991
      f-2     :     0.008613
      f+3     :     0.008024
      f-3     :     0.007026
  4 C s       :     2.752278  s :     2.752278
      pz      :     0.963417  p :     2.884657
      px      :     0.964061
      py      :     0.957179
      dz2     :     0.091357  d :     0.489748
      dxz     :     0.066155
      dyz     :     0.137409
      dx2y2   :     0.110275
      dxy     :     0.084551
      f0      :     0.012255  f :     0.060832
      f+1     :     0.007873
      f-1     :     0.009895
      f+2     :     0.005864
      f-2     :     0.004894
      f+3     :     0.008716
      f-3     :     0.011335
  5 C s       :     2.800351  s :     2.800351
      pz      :     0.979361  p :     2.882664
      px      :     0.962567
      py      :     0.940735
      dz2     :     0.043285  d :     0.456807
      dxz     :     0.142884
      dyz     :     0.081793
      dx2y2   :     0.062146
      dxy     :     0.126699
      f0      :     0.004882  f :     0.052251
      f+1     :     0.006690
      f-1     :     0.005176
      f+2     :     0.007249
      f-2     :     0.009156
      f+3     :     0.008830
      f-3     :     0.010268
  6 N s       :     3.119011  s :     3.119011
      pz      :     1.187387  p :     3.577528
      px      :     1.086936
      py      :     1.303205
      dz2     :     0.030892  d :     0.211570
      dxz     :     0.051112
      dyz     :     0.047623
      dx2y2   :     0.037548
      dxy     :     0.044397
      f0      :     0.002150  f :     0.020162
      f+1     :     0.003307
      f-1     :     0.002358
      f+2     :     0.003241
      f-2     :     0.003654
      f+3     :     0.003159
      f-3     :     0.002293
  7 C s       :     2.799737  s :     2.799737
      pz      :     0.990326  p :     2.882316
      px      :     1.000478
      py      :     0.891512
      dz2     :     0.085771  d :     0.471329
      dxz     :     0.110842
      dyz     :     0.105612
      dx2y2   :     0.101281
      dxy     :     0.067822
      f0      :     0.011308  f :     0.053275
      f+1     :     0.007503
      f-1     :     0.009114
      f+2     :     0.005315
      f-2     :     0.006364
      f+3     :     0.006805
      f-3     :     0.006866
  8 H s       :     0.813935  s :     0.813935
      pz      :     0.036211  p :     0.061937
      px      :     0.013768
      py      :     0.011959
  9 H s       :     0.829142  s :     0.829142
      pz      :     0.020106  p :     0.060978
      px      :     0.018007
      py      :     0.022865
 10 H s       :     0.733394  s :     0.733394
      pz      :     0.057496  p :     0.109481
      px      :     0.027332
      py      :     0.024653
 11 H s       :     0.809589  s :     0.809589
      pz      :     0.023992  p :     0.058287
      px      :     0.021764
      py      :     0.012531
 12 H s       :     0.805242  s :     0.805242
      pz      :     0.011820  p :     0.055472
      px      :     0.032410
      py      :     0.011242
 13 H s       :     0.833492  s :     0.833492
      pz      :     0.019149  p :     0.058213
      px      :     0.011555
      py      :     0.027509
 14 H s       :     0.831081  s :     0.831081
      pz      :     0.020335  p :     0.058390
      px      :     0.019893
      py      :     0.018161
 15 H s       :     0.810962  s :     0.810962
      pz      :     0.029778  p :     0.067277
      px      :     0.016473
      py      :     0.021025
 16 H s       :     0.830366  s :     0.830366
      pz      :     0.012995  p :     0.058487
      px      :     0.035337
      py      :     0.010154
 17 H s       :     0.827753  s :     0.827753
      pz      :     0.021383  p :     0.058698
      px      :     0.019470
      py      :     0.017845


                      *****************************
                      * MAYER POPULATION ANALYSIS *
                      *****************************

  NA   - Mulliken gross atomic population
  ZA   - Total nuclear charge
  QA   - Mulliken gross atomic charge
  VA   - Mayer's total valence
  BVA  - Mayer's bonded valence
  FA   - Mayer's free valence

  ATOM       NA         ZA         QA         VA         BVA        FA
  0 C      6.1123     6.0000    -0.1123     3.9226     3.9226     0.0000
  1 N      7.4514     7.0000    -0.4514     2.8520     2.8520    -0.0000
  2 C      6.0380     6.0000    -0.0380     3.9425     3.9425    -0.0000
  3 C      5.9514     6.0000     0.0486     3.8886     3.8886    -0.0000
  4 C      6.0686     6.0000    -0.0686     3.8964     3.8964    -0.0000
  5 C      6.1347     6.0000    -0.1347     3.9403     3.9403    -0.0000
  6 N      7.3066     7.0000    -0.3066     2.8733     2.8733    -0.0000
  7 C      6.1000     6.0000    -0.1000     3.9369     3.9369     0.0000
  8 H      0.8734     1.0000     0.1266     0.9780     0.9780     0.0000
  9 H      0.8924     1.0000     0.1076     0.9606     0.9606     0.0000
 10 H      0.7894     1.0000     0.2106     0.9453     0.9453     0.0000
 11 H      0.8977     1.0000     0.1023     0.9565     0.9565    -0.0000
 12 H      0.9239     1.0000     0.0761     0.9771     0.9771    -0.0000
 13 H      0.8954     1.0000     0.1046     0.9563     0.9563     0.0000
 14 H      0.9122     1.0000     0.0878     0.9790     0.9790    -0.0000
 15 H      0.8436     1.0000     0.1564     0.9763     0.9763    -0.0000
 16 H      0.9081     1.0000     0.0919     0.9798     0.9798     0.0000
 17 H      0.9009     1.0000     0.0991     0.9797     0.9797    -0.0000

  Mayer bond orders larger than 0.1
B(  0-C ,  1-N ) :   0.9605 B(  0-C ,  2-C ) :   1.0098 B(  0-C ,  8-H ) :   0.9653 
B(  0-C ,  9-H ) :   0.9780 B(  1-N ,  2-C ) :   0.9820 B(  1-N , 10-H ) :   0.9266 
B(  2-C ,  3-C ) :   0.9362 B(  2-C , 11-H ) :   0.9773 B(  3-C ,  4-C ) :   0.9902 
B(  3-C ,  6-N ) :   0.9702 B(  3-C , 12-H ) :   0.9790 B(  4-C ,  5-C ) :   0.9997 
B(  4-C ,  7-C ) :   0.9906 B(  4-C , 13-H ) :   0.9507 B(  5-C ,  6-N ) :   0.9533 
B(  5-C , 14-H ) :   0.9850 B(  5-C , 15-H ) :   0.9734 B(  6-N ,  7-C ) :   0.9612 
B(  7-C , 16-H ) :   0.9826 B(  7-C , 17-H ) :   0.9825 

-------
TIMINGS
-------

Total SCF time: 0 days 0 hours 1 min 45 sec 

Total time                  ....     105.388 sec
Sum of individual times     ....     109.055 sec  (103.5%)

Fock matrix formation       ....     104.266 sec  ( 98.9%)
Diagonalization             ....       0.512 sec  (  0.5%)
Density matrix formation    ....       0.030 sec  (  0.0%)
Population analysis         ....       0.124 sec  (  0.1%)
Initial guess               ....       2.565 sec  (  2.4%)
Orbital Transformation      ....       0.000 sec  (  0.0%)
Orbital Orthonormalization  ....       0.000 sec  (  0.0%)
DIIS solution               ....       0.158 sec  (  0.1%)
SOSCF solution              ....       0.189 sec  (  0.2%)

   <<< Auxbasis replaced with dsgdb9nsd_020294.AUXC.tmp (Dim=758) >>> 


------------------------------------------------------------------------------
                              ORCA MP2 CALCULATION
------------------------------------------------------------------------------

Freezing NCore=16 chemical core electrons

   <<< Use J-auxbasis for calculation of Separable RI-J derivative contributions dsgdb9nsd_020294.AUXJ.tmp (Dim=784) >>> 


---------------------
RI-MP2 ENERGY+DENSITY
---------------------
Dimension of the basis                    ...  308
Memory devoted to MP2                     ... 2000 MB   
Data format for buffers                   ... DOUBLE
Compression type for matrix containers    ... UNCOMPRESSED
Overall scaling of the MP2 energy         ...   1.000e+00 Eh
Calculating two index integrals           ... done (    0.016 sec)
Cholesky decomposition of V**-1           ... done (    0.092 sec)

-----------------
RI-TRANSFORMATION (AUX index driven)
-----------------

Dimension of the orbital-basis         ... 308
Dimension of the aux-basis             ... 758
Transformation of internal MOs         ...    0-  29
Transformation of internal/external MOs...    0-  29 to   30- 307
Number Format for Storage              ... Double (8 Byte)
Integral mode                          ... Direct

First Phase: integral generation and transformation of MO indices
  Aux angular momentum 0               ... done (    0.691 sec)
  Aux angular momentum 1               ... done (    0.929 sec)
  Aux angular momentum 2               ... done (    0.869 sec)
  Aux angular momentum 3               ... done (    0.630 sec)
  Aux angular momentum 4               ... done (    0.294 sec)
Closing buffer VIJ ( 0.00 GB; CompressionRatio= 1.93)
Closing buffer VIA ( 0.05 GB; CompressionRatio= 1.00)
  Phase 1 completed in     3.511 sec
Second Phase: sorting and transformation of aux index

IJ-Transformation
Memory available                       ... 1989 MB 
Max. # MO pairs treated in a batch     ... 30    
# of internal orbitals                 ... 30
# batches for internal orbitals        ... 1
Closing buffer IJV ( 0.00 GB; CompressionRatio= 1.00)
(ij|v) transformation done in     0.129 sec

IA-Transformation
Memory available                       ... 1989 MB 
Max. # MO pairs treated in a batch     ... 30    
# of internal orbitals                 ... 30
# batches for internal orbitals        ... 1
Closing buffer IAV ( 0.05 GB; CompressionRatio= 1.00)
(ia|v) transformation done in     1.000 sec

  Phase 2 completed in     1.144 sec
RI-Integral transformation completed in     4.655 sec
Opening buffers                              ... done
Frozen core precalculation                   ... done

Starting loop over batches of integrals:

Operator 0  - window                       ... (  8- 29)x( 30-307)
Operator 0  - Memory available             ...  2000 MB
Operator 0  - Memory needed per MO         ...   3.2 MB
Operator 0  - Number of orbitals per batch ... 22
Operator 0  - Number of batches            ... 1

OPERATOR  0   PASS   0:  MOs     8 ...   29
  Reading integrals       ... ok
  Internal MO  10
  Internal MO  13
  Internal MO  16
  Internal MO  19
  Internal MO  22
  Internal MO  25
  Internal MO  28
Time spent in pair loops =    25.616 sec
Deleting buffer (Ka|jb)[aa] ...done

-----------------------------------------------
 RI-MP2 CORRELATION ENERGY:     -1.393335479 Eh
-----------------------------------------------


---------------------
MP2 DENSITY FORMATION
---------------------

Completing the external part of the density      ... done
Storing the unrelaxed density                    ... done

Calculating G(D)                                 ... done
Completing the Lagrangian                        ... done
Solving the Z-vector equations                   ... 

------------------------------------------------------------------------------
                           ORCA CP-SCF CALCULATION
------------------------------------------------------------------------------

Input orbitals are from        ... dsgdb9nsd_020294.gbw
Input Perturbation             ... dsgdb9nsd_020294.pin.tmp
Wavefunction output            ... dsgdb9nsd_020294.pout.tmp
Perturbation mode              ... Real perturbation
Solver                         ... POPLE
Max. number of iterations      ... 128
Convergence tolerance          ... 1.000e-08
Integral handling              ... Direct
Number of perturbations        ... 1
Number of operators            ... 1
Orbital ranges used for CP-SCF:
 Operator 0:  Orbitals   0... 29  to  30...307
Variables per vector in CP-SCF ... 8340
Number of vectors sought       ... 1
     CP-SCF ITERATION   0: 
     CP-SCF ITERATION   1:      0.000695883
     CP-SCF ITERATION   2:      0.000085283
     CP-SCF ITERATION   3:      0.000010950
     CP-SCF ITERATION   4:      0.000000915
     CP-SCF ITERATION   5:      0.000000061
     CP-SCF ITERATION   6:      0.000000010
done
Finalizing the relaxed density                   ... done
Transforming P to the AO basis                   ... done
Storing the relaxed density                      ... done

                *********************************************
                * UNRELAXED MP2 DENSITY POPULATION ANALYSIS *
                *********************************************

------------------------------------------------------------------------------
                           ORCA POPULATION ANALYSIS
------------------------------------------------------------------------------
Input electron density              ... dsgdb9nsd_020294.pmp2ur
BaseName (.gbw .S,...)              ... dsgdb9nsd_020294

                    ********************************
                    * MULLIKEN POPULATION ANALYSIS *
                    ********************************

-----------------------
MULLIKEN ATOMIC CHARGES
-----------------------
   0 C :   -0.123267
   1 N :   -0.442009
   2 C :   -0.047419
   3 C :    0.036036
   4 C :   -0.068197
   5 C :   -0.148210
   6 N :   -0.289727
   7 C :   -0.113599
   8 H :    0.129717
   9 H :    0.110867
  10 H :    0.211591
  11 H :    0.106737
  12 H :    0.080517
  13 H :    0.107613
  14 H :    0.091576
  15 H :    0.159224
  16 H :    0.095587
  17 H :    0.102963
Sum of atomic charges:   -0.0000000

--------------------------------
MULLIKEN REDUCED ORBITAL CHARGES
--------------------------------
  0 C s       :     3.205903  s :     3.205903
      pz      :     1.024474  p :     2.778778
      px      :     0.897954
      py      :     0.856350
      dz2     :     0.024203  d :     0.124581
      dxz     :     0.019352
      dyz     :     0.025559
      dx2y2   :     0.026797
      dxy     :     0.028669
      f0      :     0.001660  f :     0.014005
      f+1     :     0.001528
      f-1     :     0.001993
      f+2     :     0.001641
      f-2     :     0.002295
      f+3     :     0.002383
      f-3     :     0.002505
  1 N s       :     3.616974  s :     3.616974
      pz      :     1.186662  p :     3.722671
      px      :     1.302842
      py      :     1.233167
      dz2     :     0.024184  d :     0.095249
      dxz     :     0.015654
      dyz     :     0.011368
      dx2y2   :     0.018719
      dxy     :     0.025325
      f0      :     0.001422  f :     0.007115
      f+1     :     0.000784
      f-1     :     0.000614
      f+2     :     0.000961
      f-2     :     0.001050
      f+3     :     0.001138
      f-3     :     0.001145
  2 C s       :     3.153885  s :     3.153885
      pz      :     0.962342  p :     2.718330
      px      :     0.824352
      py      :     0.931636
      dz2     :     0.026668  d :     0.159025
      dxz     :     0.037009
      dyz     :     0.026357
      dx2y2   :     0.041124
      dxy     :     0.027867
      f0      :     0.001626  f :     0.016179
      f+1     :     0.002319
      f-1     :     0.002106
      f+2     :     0.002590
      f-2     :     0.001925
      f+3     :     0.003025
      f-3     :     0.002589
  3 C s       :     3.149569  s :     3.149569
      pz      :     0.812329  p :     2.629382
      px      :     0.907366
      py      :     0.909688
      dz2     :     0.040888  d :     0.169634
      dxz     :     0.030127
      dyz     :     0.033360
      dx2y2   :     0.045195
      dxy     :     0.020064
      f0      :     0.002071  f :     0.015379
      f+1     :     0.002408
      f-1     :     0.002384
      f+2     :     0.002935
      f-2     :     0.001778
      f+3     :     0.002004
      f-3     :     0.001799
  4 C s       :     3.145840  s :     3.145840
      pz      :     0.933982  p :     2.773685
      px      :     0.923130
      py      :     0.916574
      dz2     :     0.028950  d :     0.134512
      dxz     :     0.019716
      dyz     :     0.030887
      dx2y2   :     0.030402
      dxy     :     0.024557
      f0      :     0.002444  f :     0.014160
      f+1     :     0.001499
      f-1     :     0.002443
      f+2     :     0.001925
      f-2     :     0.001506
      f+3     :     0.002070
      f-3     :     0.002273
  5 C s       :     3.227893  s :     3.227893
      pz      :     0.972667  p :     2.776697
      px      :     0.902684
      py      :     0.901345
      dz2     :     0.015907  d :     0.130844
      dxz     :     0.036397
      dyz     :     0.027751
      dx2y2   :     0.015062
      dxy     :     0.035728
      f0      :     0.001255  f :     0.012776
      f+1     :     0.001696
      f-1     :     0.001313
      f+2     :     0.001725
      f-2     :     0.003031
      f+3     :     0.001583
      f-3     :     0.002172
  6 N s       :     3.598910  s :     3.598910
      pz      :     1.198838  p :     3.577426
      px      :     1.068710
      py      :     1.309878
      dz2     :     0.020502  d :     0.106237
      dxz     :     0.025985
      dyz     :     0.017529
      dx2y2   :     0.017414
      dxy     :     0.024807
      f0      :     0.000867  f :     0.007153
      f+1     :     0.001018
      f-1     :     0.001009
      f+2     :     0.001097
      f-2     :     0.001201
      f+3     :     0.001042
      f-3     :     0.000920
  7 C s       :     3.211877  s :     3.211877
      pz      :     0.930199  p :     2.757771
      px      :     0.990200
      py      :     0.837371
      dz2     :     0.025229  d :     0.130923
      dxz     :     0.025615
      dyz     :     0.026923
      dx2y2   :     0.029896
      dxy     :     0.023261
      f0      :     0.002503  f :     0.013028
      f+1     :     0.001747
      f-1     :     0.001868
      f+2     :     0.001695
      f-2     :     0.001745
      f+3     :     0.001888
      f-3     :     0.001582
  8 H s       :     0.844169  s :     0.844169
      pz      :     0.015311  p :     0.026114
      px      :     0.005457
      py      :     0.005346
  9 H s       :     0.863652  s :     0.863652
      pz      :     0.007868  p :     0.025481
      px      :     0.007152
      py      :     0.010461
 10 H s       :     0.749075  s :     0.749075
      pz      :     0.021550  p :     0.039333
      px      :     0.009232
      py      :     0.008552
 11 H s       :     0.867251  s :     0.867251
      pz      :     0.010838  p :     0.026011
      px      :     0.009837
      py      :     0.005336
 12 H s       :     0.893658  s :     0.893658
      pz      :     0.005353  p :     0.025825
      px      :     0.015521
      py      :     0.004951
 13 H s       :     0.867698  s :     0.867698
      pz      :     0.008166  p :     0.024689
      px      :     0.004894
      py      :     0.011629
 14 H s       :     0.883240  s :     0.883240
      pz      :     0.008178  p :     0.025185
      px      :     0.009582
      py      :     0.007425
 15 H s       :     0.813295  s :     0.813295
      pz      :     0.011590  p :     0.027481
      px      :     0.007381
      py      :     0.008510
 16 H s       :     0.879162  s :     0.879162
      pz      :     0.005954  p :     0.025251
      px      :     0.014991
      py      :     0.004306
 17 H s       :     0.871670  s :     0.871670
      pz      :     0.009916  p :     0.025366
      px      :     0.007623
      py      :     0.007828


                     *******************************
                     * LOEWDIN POPULATION ANALYSIS *
                     *******************************

----------------------
LOEWDIN ATOMIC CHARGES
----------------------
   0 C :   -0.233780
   1 N :   -0.033168
   2 C :   -0.251244
   3 C :   -0.204171
   4 C :   -0.189536
   5 C :   -0.198077
   6 N :    0.078442
   7 C :   -0.212638
   8 H :    0.126006
   9 H :    0.111676
  10 H :    0.157709
  11 H :    0.133770
  12 H :    0.140832
  13 H :    0.109972
  14 H :    0.112351
  15 H :    0.123482
  16 H :    0.112966
  17 H :    0.115410

-------------------------------
LOEWDIN REDUCED ORBITAL CHARGES
-------------------------------
  0 C s       :     2.789887  s :     2.789887
      pz      :     1.007390  p :     2.926145
      px      :     0.947694
      py      :     0.971061
      dz2     :     0.086026  d :     0.455524
      dxz     :     0.054534
      dyz     :     0.112900
      dx2y2   :     0.093406
      dxy     :     0.108659
      f0      :     0.006067  f :     0.062224
      f+1     :     0.007431
      f-1     :     0.006915
      f+2     :     0.008080
      f-2     :     0.008778
      f+3     :     0.011531
      f-3     :     0.013422
  1 N s       :     3.094662  s :     3.094662
      pz      :     1.164914  p :     3.701222
      px      :     1.345987
      py      :     1.190321
      dz2     :     0.059979  d :     0.217220
      dxz     :     0.036963
      dyz     :     0.023814
      dx2y2   :     0.049819
      dxy     :     0.046645
      f0      :     0.003828  f :     0.020064
      f+1     :     0.001944
      f-1     :     0.001615
      f+2     :     0.002674
      f-2     :     0.002526
      f+3     :     0.003941
      f-3     :     0.003536
  2 C s       :     2.731402  s :     2.731402
      pz      :     0.984718  p :     2.853351
      px      :     0.879156
      py      :     0.989477
      dz2     :     0.093842  d :     0.591083
      dxz     :     0.131773
      dyz     :     0.112566
      dx2y2   :     0.145002
      dxy     :     0.107899
      f0      :     0.007940  f :     0.075409
      f+1     :     0.011425
      f-1     :     0.008691
      f+2     :     0.010512
      f-2     :     0.007150
      f+3     :     0.017208
      f-3     :     0.012483
  3 C s       :     2.739029  s :     2.739029
      pz      :     0.906533  p :     2.784826
      px      :     0.928018
      py      :     0.950275
      dz2     :     0.142859  d :     0.609950
      dxz     :     0.097102
      dyz     :     0.138670
      dx2y2   :     0.159302
      dxy     :     0.072018
      f0      :     0.010869  f :     0.070366
      f+1     :     0.011474
      f-1     :     0.009790
      f+2     :     0.012048
      f-2     :     0.009331
      f+3     :     0.009004
      f-3     :     0.007850
  4 C s       :     2.750666  s :     2.750666
      pz      :     0.954571  p :     2.858061
      px      :     0.954396
      py      :     0.949094
      dz2     :     0.097238  d :     0.513589
      dxz     :     0.071048
      dyz     :     0.140587
      dx2y2   :     0.114937
      dxy     :     0.089779
      f0      :     0.013312  f :     0.067221
      f+1     :     0.008702
      f-1     :     0.010839
      f+2     :     0.006736
      f-2     :     0.005665
      f+3     :     0.009658
      f-3     :     0.012308
  5 C s       :     2.799102  s :     2.799102
      pz      :     0.972840  p :     2.862362
      px      :     0.955146
      py      :     0.934376
      dz2     :     0.048389  d :     0.478657
      dxz     :     0.146288
      dyz     :     0.086459
      dx2y2   :     0.066905
      dxy     :     0.130616
      f0      :     0.005652  f :     0.057956
      f+1     :     0.007527
      f-1     :     0.005826
      f+2     :     0.007881
      f-2     :     0.010408
      f+3     :     0.009538
      f-3     :     0.011124
  6 N s       :     3.114780  s :     3.114780
      pz      :     1.174783  p :     3.539302
      px      :     1.076169
      py      :     1.288350
      dz2     :     0.037206  d :     0.243149
      dxz     :     0.057778
      dyz     :     0.053602
      dx2y2   :     0.043588
      dxy     :     0.050974
      f0      :     0.002732  f :     0.024327
      f+1     :     0.003926
      f-1     :     0.002928
      f+2     :     0.003828
      f-2     :     0.004282
      f+3     :     0.003769
      f-3     :     0.002863
  7 C s       :     2.798503  s :     2.798503
      pz      :     0.981654  p :     2.862313
      px      :     0.994174
      py      :     0.886484
      dz2     :     0.091108  d :     0.492820
      dxz     :     0.114733
      dyz     :     0.109146
      dx2y2   :     0.105222
      dxy     :     0.072610
      f0      :     0.012293  f :     0.059003
      f+1     :     0.008315
      f-1     :     0.009895
      f+2     :     0.006072
      f-2     :     0.007155
      f+3     :     0.007792
      f-3     :     0.007480
  8 H s       :     0.807002  s :     0.807002
      pz      :     0.038443  p :     0.066992
      px      :     0.015121
      py      :     0.013428
  9 H s       :     0.822061  s :     0.822061
      pz      :     0.021834  p :     0.066263
      px      :     0.019590
      py      :     0.024839
 10 H s       :     0.728342  s :     0.728342
      pz      :     0.059994  p :     0.113949
      px      :     0.028296
      py      :     0.025659
 11 H s       :     0.802375  s :     0.802375
      pz      :     0.026131  p :     0.063855
      px      :     0.023815
      py      :     0.013910
 12 H s       :     0.797707  s :     0.797707
      pz      :     0.013442  p :     0.061460
      px      :     0.035317
      py      :     0.012701
 13 H s       :     0.826270  s :     0.826270
      pz      :     0.020990  p :     0.063758
      px      :     0.012971
      py      :     0.029797
 14 H s       :     0.823616  s :     0.823616
      pz      :     0.022187  p :     0.064034
      px      :     0.021897
      py      :     0.019950
 15 H s       :     0.803933  s :     0.803933
      pz      :     0.031736  p :     0.072585
      px      :     0.018201
      py      :     0.022648
 16 H s       :     0.822941  s :     0.822941
      pz      :     0.014528  p :     0.064093
      px      :     0.037972
      py      :     0.011593
 17 H s       :     0.820331  s :     0.820331
      pz      :     0.023347  p :     0.064259
      px      :     0.021226
      py      :     0.019686


                      *****************************
                      * MAYER POPULATION ANALYSIS *
                      *****************************

  NA   - Mulliken gross atomic population
  ZA   - Total nuclear charge
  QA   - Mulliken gross atomic charge
  VA   - Mayer's total valence
  BVA  - Mayer's bonded valence
  FA   - Mayer's free valence

  ATOM       NA         ZA         QA         VA         BVA        FA
  0 C      6.1233     6.0000    -0.1233     4.0249     3.6972     0.3277
  1 N      7.4420     7.0000    -0.4420     3.0768     2.6525     0.4242
  2 C      6.0474     6.0000    -0.0474     4.0410     3.6933     0.3478
  3 C      5.9640     6.0000     0.0360     3.9881     3.6276     0.3605
  4 C      6.0682     6.0000    -0.0682     3.9794     3.6365     0.3428
  5 C      6.1482     6.0000    -0.1482     4.0487     3.7037     0.3449
  6 N      7.2897     7.0000    -0.2897     3.0879     2.6177     0.4701
  7 C      6.1136     6.0000    -0.1136     4.0442     3.6988     0.3455
  8 H      0.8703     1.0000     0.1297     0.9857     0.9373     0.0484
  9 H      0.8891     1.0000     0.1109     0.9696     0.9199     0.0498
 10 H      0.7884     1.0000     0.2116     0.9522     0.8987     0.0535
 11 H      0.8933     1.0000     0.1067     0.9652     0.9145     0.0507
 12 H      0.9195     1.0000     0.0805     0.9869     0.9324     0.0545
 13 H      0.8924     1.0000     0.1076     0.9655     0.9122     0.0533
 14 H      0.9084     1.0000     0.0916     0.9883     0.9368     0.0515
 15 H      0.8408     1.0000     0.1592     0.9839     0.9355     0.0484
 16 H      0.9044     1.0000     0.0956     0.9890     0.9377     0.0513
 17 H      0.8970     1.0000     0.1030     0.9883     0.9378     0.0506

  Mayer bond orders larger than 0.1
B(  0-C ,  1-N ) :   0.8866 B(  0-C ,  2-C ) :   0.9390 B(  0-C ,  8-H ) :   0.9271 
B(  0-C ,  9-H ) :   0.9397 B(  1-N ,  2-C ) :   0.9050 B(  1-N , 10-H ) :   0.8826 
B(  2-C ,  3-C ) :   0.8816 B(  2-C , 11-H ) :   0.9377 B(  3-C ,  4-C ) :   0.9192 
B(  3-C ,  6-N ) :   0.8872 B(  3-C , 12-H ) :   0.9371 B(  4-C ,  5-C ) :   0.9294 
B(  4-C ,  7-C ) :   0.9206 B(  4-C , 13-H ) :   0.9113 B(  5-C ,  6-N ) :   0.8727 
B(  5-C , 14-H ) :   0.9450 B(  5-C , 15-H ) :   0.9346 B(  6-N ,  7-C ) :   0.8794 
B(  7-C , 16-H ) :   0.9428 B(  7-C , 17-H ) :   0.9430 


                *******************************************
                * RELAXED MP2 DENSITY POPULATION ANALYSIS *
                *******************************************

------------------------------------------------------------------------------
                           ORCA POPULATION ANALYSIS
------------------------------------------------------------------------------
Input electron density              ... dsgdb9nsd_020294.pmp2re
BaseName (.gbw .S,...)              ... dsgdb9nsd_020294

                    ********************************
                    * MULLIKEN POPULATION ANALYSIS *
                    ********************************

-----------------------
MULLIKEN ATOMIC CHARGES
-----------------------
   0 C :   -0.173213
   1 N :   -0.393153
   2 C :   -0.092331
   3 C :   -0.014884
   4 C :   -0.083467
   5 C :   -0.190118
   6 N :   -0.211532
   7 C :   -0.152730
   8 H :    0.144139
   9 H :    0.125204
  10 H :    0.217703
  11 H :    0.126197
  12 H :    0.094689
  13 H :    0.106644
  14 H :    0.105851
  15 H :    0.164020
  16 H :    0.110316
  17 H :    0.116665
Sum of atomic charges:   -0.0000000

--------------------------------
MULLIKEN REDUCED ORBITAL CHARGES
--------------------------------
  0 C s       :     3.225084  s :     3.225084
      pz      :     1.047310  p :     2.821183
      px      :     0.913309
      py      :     0.860564
      dz2     :     0.022359  d :     0.113603
      dxz     :     0.017350
      dyz     :     0.023253
      dx2y2   :     0.025721
      dxy     :     0.024920
      f0      :     0.001567  f :     0.013342
      f+1     :     0.001432
      f-1     :     0.001917
      f+2     :     0.001615
      f-2     :     0.002135
      f+3     :     0.002251
      f-3     :     0.002426
  1 N s       :     3.635842  s :     3.635842
      pz      :     1.166581  p :     3.660036
      px      :     1.275753
      py      :     1.217703
      dz2     :     0.021369  d :     0.090363
      dxz     :     0.016010
      dyz     :     0.010996
      dx2y2   :     0.019002
      dxy     :     0.022985
      f0      :     0.001315  f :     0.006912
      f+1     :     0.000792
      f-1     :     0.000611
      f+2     :     0.000950
      f-2     :     0.001021
      f+3     :     0.001117
      f-3     :     0.001106
  2 C s       :     3.186381  s :     3.186381
      pz      :     0.983431  p :     2.739607
      px      :     0.833305
      py      :     0.922872
      dz2     :     0.026581  d :     0.150953
      dxz     :     0.034376
      dyz     :     0.023796
      dx2y2   :     0.037318
      dxy     :     0.028882
      f0      :     0.001601  f :     0.015389
      f+1     :     0.002244
      f-1     :     0.001922
      f+2     :     0.002380
      f-2     :     0.001896
      f+3     :     0.002889
      f-3     :     0.002456
  3 C s       :     3.195896  s :     3.195896
      pz      :     0.826113  p :     2.642272
      px      :     0.921201
      py      :     0.894959
      dz2     :     0.039505  d :     0.162152
      dxz     :     0.027471
      dyz     :     0.033305
      dx2y2   :     0.040591
      dxy     :     0.021279
      f0      :     0.002055  f :     0.014564
      f+1     :     0.002258
      f-1     :     0.002107
      f+2     :     0.002771
      f-2     :     0.001769
      f+3     :     0.001872
      f-3     :     0.001732
  4 C s       :     3.192049  s :     3.192049
      pz      :     0.927717  p :     2.754219
      px      :     0.917296
      py      :     0.909206
      dz2     :     0.023599  d :     0.123617
      dxz     :     0.019466
      dyz     :     0.030772
      dx2y2   :     0.027515
      dxy     :     0.022265
      f0      :     0.002253  f :     0.013583
      f+1     :     0.001411
      f-1     :     0.002397
      f+2     :     0.001884
      f-2     :     0.001527
      f+3     :     0.001937
      f-3     :     0.002173
  5 C s       :     3.256312  s :     3.256312
      pz      :     0.986448  p :     2.801398
      px      :     0.901483
      py      :     0.913468
      dz2     :     0.016279  d :     0.120312
      dxz     :     0.032557
      dyz     :     0.024084
      dx2y2   :     0.017148
      dxy     :     0.030244
      f0      :     0.001192  f :     0.012096
      f+1     :     0.001654
      f-1     :     0.001216
      f+2     :     0.001688
      f-2     :     0.002765
      f+3     :     0.001592
      f-3     :     0.001990
  6 N s       :     3.595834  s :     3.595834
      pz      :     1.179483  p :     3.507958
      px      :     1.046390
      py      :     1.282086
      dz2     :     0.020030  d :     0.100697
      dxz     :     0.022801
      dyz     :     0.017709
      dx2y2   :     0.017419
      dxy     :     0.022739
      f0      :     0.000863  f :     0.007043
      f+1     :     0.000969
      f-1     :     0.001021
      f+2     :     0.001092
      f-2     :     0.001157
      f+3     :     0.001007
      f-3     :     0.000934
  7 C s       :     3.236637  s :     3.236637
      pz      :     0.929162  p :     2.781774
      px      :     1.004929
      py      :     0.847683
      dz2     :     0.022140  d :     0.121932
      dxz     :     0.025815
      dyz     :     0.025331
      dx2y2   :     0.027428
      dxy     :     0.021218
      f0      :     0.002286  f :     0.012387
      f+1     :     0.001729
      f-1     :     0.001790
      f+2     :     0.001684
      f-2     :     0.001653
      f+3     :     0.001726
      f-3     :     0.001519
  8 H s       :     0.830882  s :     0.830882
      pz      :     0.014015  p :     0.024979
      px      :     0.005581
      py      :     0.005384
  9 H s       :     0.850314  s :     0.850314
      pz      :     0.007550  p :     0.024481
      px      :     0.007143
      py      :     0.009788
 10 H s       :     0.743735  s :     0.743735
      pz      :     0.020033  p :     0.038562
      px      :     0.009668
      py      :     0.008861
 11 H s       :     0.848889  s :     0.848889
      pz      :     0.010118  p :     0.024914
      px      :     0.009333
      py      :     0.005463
 12 H s       :     0.880517  s :     0.880517
      pz      :     0.005424  p :     0.024794
      px      :     0.014203
      py      :     0.005167
 13 H s       :     0.869508  s :     0.869508
      pz      :     0.007900  p :     0.023848
      px      :     0.005064
      py      :     0.010884
 14 H s       :     0.869935  s :     0.869935
      pz      :     0.007804  p :     0.024214
      px      :     0.009131
      py      :     0.007279
 15 H s       :     0.809483  s :     0.809483
      pz      :     0.010954  p :     0.026497
      px      :     0.007245
      py      :     0.008298
 16 H s       :     0.865393  s :     0.865393
      pz      :     0.006024  p :     0.024291
      px      :     0.013707
      py      :     0.004560
 17 H s       :     0.858960  s :     0.858960
      pz      :     0.009429  p :     0.024375
      px      :     0.007280
      py      :     0.007666


                     *******************************
                     * LOEWDIN POPULATION ANALYSIS *
                     *******************************

----------------------
LOEWDIN ATOMIC CHARGES
----------------------
   0 C :   -0.255317
   1 N :   -0.019530
   2 C :   -0.270225
   3 C :   -0.222834
   4 C :   -0.201652
   5 C :   -0.219367
   6 N :    0.102950
   7 C :   -0.233200
   8 H :    0.132875
   9 H :    0.119030
  10 H :    0.164937
  11 H :    0.142530
  12 H :    0.149946
  13 H :    0.116938
  14 H :    0.120246
  15 H :    0.128413
  16 H :    0.120959
  17 H :    0.123301

-------------------------------
LOEWDIN REDUCED ORBITAL CHARGES
-------------------------------
  0 C s       :     2.797271  s :     2.797271
      pz      :     1.019168  p :     2.949900
      px      :     0.957810
      py      :     0.972921
      dz2     :     0.085120  d :     0.447025
      dxz     :     0.052246
      dyz     :     0.111261
      dx2y2   :     0.092485
      dxy     :     0.105913
      f0      :     0.005979  f :     0.061120
      f+1     :     0.007250
      f-1     :     0.006761
      f+2     :     0.007886
      f-2     :     0.008637
      f+3     :     0.011343
      f-3     :     0.013266
  1 N s       :     3.102043  s :     3.102043
      pz      :     1.166058  p :     3.682366
      px      :     1.330952
      py      :     1.185356
      dz2     :     0.057719  d :     0.215064
      dxz     :     0.037521
      dyz     :     0.023999
      dx2y2   :     0.050080
      dxy     :     0.045745
      f0      :     0.003785  f :     0.020057
      f+1     :     0.001996
      f-1     :     0.001633
      f+2     :     0.002633
      f-2     :     0.002585
      f+3     :     0.003891
      f-3     :     0.003532
  2 C s       :     2.738887  s :     2.738887
      pz      :     0.992350  p :     2.870810
      px      :     0.887068
      py      :     0.991392
      dz2     :     0.095175  d :     0.586463
      dxz     :     0.128251
      dyz     :     0.111818
      dx2y2   :     0.143041
      dxy     :     0.108177
      f0      :     0.008009  f :     0.074064
      f+1     :     0.011139
      f-1     :     0.008535
      f+2     :     0.010182
      f-2     :     0.007043
      f+3     :     0.016817
      f-3     :     0.012339
  3 C s       :     2.749003  s :     2.749003
      pz      :     0.912807  p :     2.800897
      px      :     0.936298
      py      :     0.951792
      dz2     :     0.141647  d :     0.604054
      dxz     :     0.095468
      dyz     :     0.138524
      dx2y2   :     0.154806
      dxy     :     0.073610
      f0      :     0.010646  f :     0.068880
      f+1     :     0.011438
      f-1     :     0.009340
      f+2     :     0.011711
      f-2     :     0.009272
      f+3     :     0.008835
      f-3     :     0.007638
  4 C s       :     2.759397  s :     2.759397
      pz      :     0.958841  p :     2.869890
      px      :     0.957473
      py      :     0.953577
      dz2     :     0.093380  d :     0.505653
      dxz     :     0.071658
      dyz     :     0.139585
      dx2y2   :     0.112346
      dxy     :     0.088684
      f0      :     0.013248  f :     0.066712
      f+1     :     0.008740
      f-1     :     0.010763
      f+2     :     0.006487
      f-2     :     0.005616
      f+3     :     0.009536
      f-3     :     0.012321
  5 C s       :     2.809132  s :     2.809132
      pz      :     0.983658  p :     2.886117
      px      :     0.957690
      py      :     0.944769
      dz2     :     0.048413  d :     0.467410
      dxz     :     0.142689
      dyz     :     0.083083
      dx2y2   :     0.068022
      dxy     :     0.125203
      f0      :     0.005555  f :     0.056709
      f+1     :     0.007358
      f-1     :     0.005716
      f+2     :     0.007590
      f-2     :     0.010130
      f+3     :     0.009523
      f-3     :     0.010838
  6 N s       :     3.125771  s :     3.125771
      pz      :     1.163543  p :     3.505180
      px      :     1.073544
      py      :     1.268092
      dz2     :     0.038053  d :     0.241549
      dxz     :     0.055873
      dyz     :     0.053232
      dx2y2   :     0.043985
      dxy     :     0.050406
      f0      :     0.002767  f :     0.024551
      f+1     :     0.003959
      f-1     :     0.002941
      f+2     :     0.003861
      f-2     :     0.004314
      f+3     :     0.003787
      f-3     :     0.002922
  7 C s       :     2.808405  s :     2.808405
      pz      :     0.984116  p :     2.884555
      px      :     1.005967
      py      :     0.894472
      dz2     :     0.088162  d :     0.482483
      dxz     :     0.114317
      dyz     :     0.106762
      dx2y2   :     0.102542
      dxy     :     0.070700
      f0      :     0.012076  f :     0.057756
      f+1     :     0.008215
      f-1     :     0.009790
      f+2     :     0.005822
      f-2     :     0.006920
      f+3     :     0.007694
      f-3     :     0.007238
  8 H s       :     0.799546  s :     0.799546
      pz      :     0.038087  p :     0.067579
      px      :     0.015611
      py      :     0.013881
  9 H s       :     0.813628  s :     0.813628
      pz      :     0.022057  p :     0.067342
      px      :     0.020222
      py      :     0.025063
 10 H s       :     0.720723  s :     0.720723
      pz      :     0.059906  p :     0.114339
      px      :     0.028531
      py      :     0.025903
 11 H s       :     0.792232  s :     0.792232
      pz      :     0.026373  p :     0.065238
      px      :     0.024429
      py      :     0.014435
 12 H s       :     0.787154  s :     0.787154
      pz      :     0.013996  p :     0.062899
      px      :     0.035576
      py      :     0.013327
 13 H s       :     0.817566  s :     0.817566
      pz      :     0.021567  p :     0.065497
      px      :     0.013543
      py      :     0.030387
 14 H s       :     0.814443  s :     0.814443
      pz      :     0.022512  p :     0.065311
      px      :     0.022301
      py      :     0.020499
 15 H s       :     0.798148  s :     0.798148
      pz      :     0.031889  p :     0.073439
      px      :     0.018598
      py      :     0.022951
 16 H s       :     0.813749  s :     0.813749
      pz      :     0.015046  p :     0.065292
      px      :     0.038060
      py      :     0.012187
 17 H s       :     0.811280  s :     0.811280
      pz      :     0.023726  p :     0.065420
      px      :     0.021442
      py      :     0.020252


                      *****************************
                      * MAYER POPULATION ANALYSIS *
                      *****************************

  NA   - Mulliken gross atomic population
  ZA   - Total nuclear charge
  QA   - Mulliken gross atomic charge
  VA   - Mayer's total valence
  BVA  - Mayer's bonded valence
  FA   - Mayer's free valence

  ATOM       NA         ZA         QA         VA         BVA        FA
  0 C      6.1732     6.0000    -0.1732     4.0376     3.7134     0.3242
  1 N      7.3932     7.0000    -0.3932     3.1208     2.7046     0.4162
  2 C      6.0923     6.0000    -0.0923     4.0499     3.7091     0.3409
  3 C      6.0149     6.0000    -0.0149     4.0480     3.6929     0.3551
  4 C      6.0835     6.0000    -0.0835     3.9588     3.6197     0.3391
  5 C      6.1901     6.0000    -0.1901     4.0793     3.7391     0.3402
  6 N      7.2115     7.0000    -0.2115     3.1713     2.7131     0.4582
  7 C      6.1527     6.0000    -0.1527     4.0734     3.7323     0.3411
  8 H      0.8559     1.0000     0.1441     0.9797     0.9321     0.0476
  9 H      0.8748     1.0000     0.1252     0.9637     0.9150     0.0488
 10 H      0.7823     1.0000     0.2177     0.9442     0.8912     0.0530
 11 H      0.8738     1.0000     0.1262     0.9601     0.9105     0.0496
 12 H      0.9053     1.0000     0.0947     0.9831     0.9302     0.0528
 13 H      0.8934     1.0000     0.1066     0.9564     0.9046     0.0518
 14 H      0.8941     1.0000     0.1059     0.9810     0.9306     0.0504
 15 H      0.8360     1.0000     0.1640     0.9891     0.9416     0.0475
 16 H      0.8897     1.0000     0.1103     0.9817     0.9314     0.0503
 17 H      0.8833     1.0000     0.1167     0.9805     0.9309     0.0496

  Mayer bond orders larger than 0.1
B(  0-C ,  1-N ) :   0.9282 B(  0-C ,  2-C ) :   0.9301 B(  0-C ,  8-H ) :   0.9132 
B(  0-C ,  9-H ) :   0.9263 B(  1-N ,  2-C ) :   0.9154 B(  1-N , 10-H ) :   0.8663 
B(  2-C ,  3-C ) :   0.9011 B(  2-C , 11-H ) :   0.9264 B(  3-C ,  4-C ) :   0.9253 
B(  3-C ,  6-N ) :   0.9255 B(  3-C , 12-H ) :   0.9216 B(  4-C ,  5-C ) :   0.9405 
B(  4-C ,  7-C ) :   0.9322 B(  4-C , 13-H ) :   0.8988 B(  5-C ,  6-N ) :   0.9094 
B(  5-C , 14-H ) :   0.9294 B(  5-C , 15-H ) :   0.9166 B(  6-N ,  7-C ) :   0.9081 
B(  7-C , 16-H ) :   0.9247 B(  7-C , 17-H ) :   0.9265 


-------
TIMINGS
-------

Total time                :  630.239 sec
Integral trafo            :    4.663 sec (  0.7%)
FC preparation            :    2.228 sec (  0.4%)
I/O of integrals          :    0.039 sec (  0.0%)
K(i,j) Operators          :    5.635 sec (  0.9%)
T(i,j) pair energies      :    0.553 sec (  0.1%)
V-calculation             :    0.016 sec (  0.0%)
V**(-1/2)                 :    0.092 sec (  0.0%)
Gamma(ia|P)               :    5.480 sec (  0.9%)
Gamma-Trafo               :    1.008 sec (  0.2%)
D(virtual)                :    2.110 sec (  0.3%)
D(internal)               :    1.912 sec (  0.3%)
W(virtual)                :    0.000 sec (  0.0%)
W(internal)               :    0.000 sec (  0.0%)
L(virtual)                :    8.470 sec (  1.3%)
L(internal)               :    0.182 sec (  0.0%)
G(D)                      :   82.192 sec ( 13.0%)
G(Z)                      :    0.000 sec (  0.0%)
Z-Vector Solution         :  515.107 sec ( 81.7%)
3-Index Derivative        :    0.000 sec (  0.0%)
2-Index Derivative        :    0.000 sec (  0.0%)
Separable Gradient (RIJ)  :    0.000 sec (  0.0%)
Separable Gradient (X)    :    0.000 sec (  0.0%)


---------------------------------------
MP2 TOTAL ENERGY:     -343.264064414 Eh
---------------------------------------

-------------------------   --------------------
FINAL SINGLE POINT ENERGY      -343.264064414432
-------------------------   --------------------


                            ***************************************
                            *     ORCA property calculations      *
                            ***************************************

                                    ---------------------
                                    Active property flags
                                    ---------------------
   (+) Dipole Moment


------------------------------------------------------------------------------
                       ORCA ELECTRIC PROPERTIES CALCULATION
------------------------------------------------------------------------------

Dipole Moment Calculation                       ... on
Quadrupole Moment Calculation                   ... off
Polarizability Calculation                      ... off
GBWName                                         ... dsgdb9nsd_020294.gbw
Electron density file                           ... dsgdb9nsd_020294.scfp.tmp

-------------
DIPOLE MOMENT
-------------
                                X             Y             Z
Electronic contribution:      0.36844       0.17540      -0.03257
Nuclear contribution   :     -1.05328      -0.49590      -0.76325
                        -----------------------------------------
Total Dipole Moment    :     -0.68484      -0.32050      -0.79582
                        -----------------------------------------
Magnitude (a.u.)       :      1.09775
Magnitude (Debye)      :      2.79025


                         *** MP2 UNRELAXED DENSITY ***

------------------------------------------------------------------------------
                       ORCA ELECTRIC PROPERTIES CALCULATION
------------------------------------------------------------------------------

Dipole Moment Calculation                       ... on
Quadrupole Moment Calculation                   ... off
Polarizability Calculation                      ... off
GBWName                                         ... dsgdb9nsd_020294.gbw
Electron density file                           ... dsgdb9nsd_020294.pmp2ur

-------------
DIPOLE MOMENT
-------------
                                X             Y             Z
Electronic contribution:      0.39045       0.19105      -0.02047
Nuclear contribution   :     -1.05328      -0.49590      -0.76325
                        -----------------------------------------
Total Dipole Moment    :     -0.66283      -0.30484      -0.78372
                        -----------------------------------------
Magnitude (a.u.)       :      1.07074
Magnitude (Debye)      :      2.72162


                           *** MP2 RELAXED DENSITY ***

------------------------------------------------------------------------------
                       ORCA ELECTRIC PROPERTIES CALCULATION
------------------------------------------------------------------------------

Dipole Moment Calculation                       ... on
Quadrupole Moment Calculation                   ... off
Polarizability Calculation                      ... off
GBWName                                         ... dsgdb9nsd_020294.gbw
Electron density file                           ... dsgdb9nsd_020294.pmp2re

-------------
DIPOLE MOMENT
-------------
                                X             Y             Z
Electronic contribution:      0.43317       0.22856      -0.00734
Nuclear contribution   :     -1.05328      -0.49590      -0.76325
                        -----------------------------------------
Total Dipole Moment    :     -0.62011      -0.26734      -0.77059
                        -----------------------------------------
Magnitude (a.u.)       :      1.02460
Magnitude (Debye)      :      2.60433


Timings for individual modules:

Sum of individual times         ...      738.830 sec (=  12.314 min)
GTO integral calculation        ...        0.443 sec (=   0.007 min)   0.1 %
SCF iterations                  ...      108.011 sec (=   1.800 min)  14.6 %
MP2 module                      ...      630.376 sec (=  10.506 min)  85.3 %
                             ****ORCA TERMINATED NORMALLY****
TOTAL RUN TIME: 0 days 0 hours 12 minutes 19 seconds 305 msec
