
                                 *****************
                                 * O   R   C   A *
                                 *****************

           --- An Ab Initio, DFT and Semiempirical electronic structure package ---

                  #######################################################
                  #                        -***-                        #
                  #  Department of molecular theory and spectroscopy    #
                  #              Directorship: Frank Neese              #
                  # Max Planck Institute for Chemical Energy Conversion #
                  #                  D-45470 Muelheim/Ruhr              #
                  #                       Germany                       #
                  #                                                     #
                  #                  All rights reserved                #
                  #                        -***-                        #
                  #######################################################


                         Program Version 3.0.3 - RELEASE   -


 With contributions from (in alphabetic order):
   Ute Becker             : Parallelization
   Dmytro Bykov           : SCF Hessian
   Dmitry Ganyushin       : Spin-Orbit,Spin-Spin,Magnetic field MRCI
   Andreas Hansen         : Spin unrestricted coupled pair/coupled cluster methods
   Dimitrios Liakos       : Extrapolation schemes; parallel MDCI
   Robert Izsak           : Overlap fitted RIJCOSX, COSX-SCS-MP3
   Christian Kollmar      : KDIIS, OOCD, Brueckner-CCSD(T), CCSD density
   Simone Kossmann        : Meta GGA functionals, TD-DFT gradient, OOMP2, MP2 Hessian
   Taras Petrenko         : DFT Hessian,TD-DFT gradient, ASA and ECA modules, normal mode analysis, Resonance Raman, ABS, FL, XAS/XES, NRVS
   Christoph Reimann      : Effective Core Potentials
   Michael Roemelt        : Restricted open shell CIS
   Christoph Riplinger    : Improved optimizer, TS searches, QM/MM, DLPNO-CCSD
   Barbara Sandhoefer     : DKH picture change effects
   Igor Schapiro          : Molecular dynamics
   Kantharuban Sivalingam : CASSCF convergence, NEVPT2
   Boris Wezisla          : Elementary symmetry handling
   Frank Wennmohs         : Technical directorship


 We gratefully acknowledge several colleagues who have allowed us to
 interface, adapt or use parts of their codes:
   Stefan Grimme, W. Hujo, H. Kruse, T. Risthaus : VdW corrections, initial TS optimization,
                                                   DFT functionals, gCP
   Ed Valeev                                     : LibInt (2-el integral package), F12 methods
   Garnet Chan, S. Sharma, R. Olivares           : DMRG
   Ulf Ekstrom                                   : XCFun DFT Library
   Mihaly Kallay                                 : mrcc  (arbitrary order and MRCC methods)
   Andreas Klamt, Michael Diedenhofen            : otool_cosmo (COSMO solvation model)
   Frank Weinhold                                : gennbo (NPA and NBO analysis)
   Christopher J. Cramer and Donald G. Truhlar   : smd solvation model


 Your calculation uses the libint2 library for the computation of 2-el integrals
 For citations please refer to: http://libint.valeyev.net

 This ORCA versions uses:
   CBLAS   interface :  Fast vector & matrix operations
   LAPACKE interface :  Fast linear algebra routines
   SCALAPACK package :  Parallel linear algebra routines


Your calculation utilizes the basis: Ahlrichs-TZV
Cite in your paper:
H - Kr: A. Schaefer, H. Horn and R. Ahlrichs, J. Chem. Phys. 97, 2571 (1992).

The def2-TZV basis will be loaded
Cite in your paper:
 	F. Weigend, R. Ahlrichs, Phys. Chem. Chem. Phys. 2005, 7, 3297.

================================================================================
                                        WARNINGS
                       Please study these warnings very carefully!
================================================================================
Now building the actual basis set


INFO   : the flag for use of LIBINT has been found!

================================================================================
                                       INPUT FILE
================================================================================
NAME = dsgdb9nsd_022699.inp
|  1> ! RI-MP2 RIJK def2-TZVP def2-TZVP/C def2-TZVP/JK TIGHTSCF
|  2> % maxcore 2000
|  3> % mp2 density relaxed end
|  4> *xyz 0 1
|  5>  O       -0.0934201660     1.3818213687     0.0456132523 
|  6>  N        0.0613745685    -0.0186436570    -0.0182606141 
|  7>  C       -1.0488645763    -0.6030658205    -0.0531894389 
|  8>  C       -2.5645761939    -0.4813514991     0.0048112602 
|  9>  C       -2.6447179241    -1.5565896307    -1.1094297717 
| 10>  C       -1.5760286487    -2.0362303982    -0.0730224544 
| 11>  O       -2.5285556585    -1.5858202499     1.0062192591 
| 12>  C       -0.9028141451    -3.2882659333     0.0403281620 
| 13>  C       -0.3279583574    -4.3405881496     0.1123561905 
| 14>  H        0.8218539000     1.6802145071     0.0837166945 
| 15>  H       -3.2042962387     0.3711171055     0.2091257192 
| 16>  H       -3.5614427496    -2.1473427390    -1.0883806656 
| 17>  H       -2.3010810794    -1.3018555796    -2.1142135765 
| 18>  H        0.1834417991    -5.2692008845     0.1830282033 
| 19> *
| 20> 
| 21>                          ****END OF INPUT****
================================================================================

                       ****************************
                       * Single Point Calculation *
                       ****************************

---------------------------------
CARTESIAN COORDINATES (ANGSTROEM)
---------------------------------
  O     -0.093420    1.381821    0.045613
  N      0.061375   -0.018644   -0.018261
  C     -1.048865   -0.603066   -0.053189
  C     -2.564576   -0.481351    0.004811
  C     -2.644718   -1.556590   -1.109430
  C     -1.576029   -2.036230   -0.073022
  O     -2.528556   -1.585820    1.006219
  C     -0.902814   -3.288266    0.040328
  C     -0.327958   -4.340588    0.112356
  H      0.821854    1.680215    0.083717
  H     -3.204296    0.371117    0.209126
  H     -3.561443   -2.147343   -1.088381
  H     -2.301081   -1.301856   -2.114214
  H      0.183442   -5.269201    0.183028

----------------------------
CARTESIAN COORDINATES (A.U.)
----------------------------
  NO LB      ZA    FRAG    MASS        X           Y           Z
   0 O     8.0000    0    15.999         -0.176538529125462          2.611263952843224          0.086196554924454
   1 N     7.0000    0    14.007          0.115981126052590         -0.035231405864764         -0.034507559686221
   2 C     6.0000    0    12.011         -1.982066800778351         -1.139629241473513         -0.100513472737938
   3 C     6.0000    0    12.011         -4.846346656045124         -0.909622507451442          0.009091964137035
   4 C     6.0000    0    12.011         -4.997792578021731         -2.941528104924620         -2.096518433331778
   5 C     6.0000    0    12.011         -2.978262525256985         -3.847917798163417         -0.137992440442753
   6 O     8.0000    0    15.999         -4.778277708941910         -2.996765969937560          1.901478830376149
   7 C     6.0000    0    12.011         -1.706071484069243         -6.213922069439965          0.076209181664410
   8 C     6.0000    0    12.011         -0.619751478816666         -8.202522862888008          0.212322429495685
   9 H     1.0000    0     1.008          1.553078793095103          3.175145264660485          0.158201625442151
  10 H     1.0000    0     1.008         -6.055242343096960          0.701309693008560          0.395190336847317
  11 H     1.0000    0     1.008         -6.730151438383480         -4.057889692374341         -2.056741387438926
  12 H     1.0000    0     1.008         -4.348413052013902         -2.460150511361318         -3.995284648203167
  13 H     1.0000    0     1.008          0.346654761812802         -9.957346616320624          0.345873179020662

--------------------------------
INTERNAL COORDINATES (ANGSTROEM)
--------------------------------
 O      0   0   0   0.000000     0.000     0.000
 N      1   0   0   1.410441     0.000     0.000
 C      2   1   0   1.255149   111.500     0.000
 C      3   2   1   1.521696   147.433   355.592
 C      4   3   2   1.550514    88.202   140.484
 C      3   2   1   1.527173   137.958   182.819
 O      4   3   2   1.491297    86.692   228.878
 C      6   3   2   1.426064   131.295     5.175
 C      8   6   3   1.201262   178.816   283.672
 H      1   2   3   0.963440   101.833   178.919
 H      4   3   2   1.085214   131.085   353.883
 H      5   4   3   1.090787   113.900   152.055
 H      5   4   3   1.092047   118.893   291.076
 H      9   8   6   1.062472   179.576   133.938

---------------------------
INTERNAL COORDINATES (A.U.)
---------------------------
 O      0   0   0   0.000000     0.000     0.000
 N      1   0   0   2.665347     0.000     0.000
 C      2   1   0   2.371889   111.500     0.000
 C      3   2   1   2.875590   147.433   355.592
 C      4   3   2   2.930046    88.202   140.484
 C      3   2   1   2.885938   137.958   182.819
 O      4   3   2   2.818143    86.692   228.878
 C      6   3   2   2.694871   131.295     5.175
 C      8   6   3   2.270055   178.816   283.672
 H      1   2   3   1.820638   101.833   178.919
 H      4   3   2   2.050757   131.085   353.883
 H      5   4   3   2.061289   113.900   152.055
 H      5   4   3   2.063669   118.893   291.076
 H      9   8   6   2.007781   179.576   133.938

---------------------
BASIS SET INFORMATION
---------------------
There are 4 groups of distinct atoms

 Group   1 Type O   : 11s6p2d1f contracted to 5s3p2d1f pattern {62111/411/11/1}
 Group   2 Type N   : 11s6p2d1f contracted to 5s3p2d1f pattern {62111/411/11/1}
 Group   3 Type C   : 11s6p2d1f contracted to 5s3p2d1f pattern {62111/411/11/1}
 Group   4 Type H   : 5s1p contracted to 3s1p pattern {311/1}

Atom   0O    basis set group =>   1
Atom   1N    basis set group =>   2
Atom   2C    basis set group =>   3
Atom   3C    basis set group =>   3
Atom   4C    basis set group =>   3
Atom   5C    basis set group =>   3
Atom   6O    basis set group =>   1
Atom   7C    basis set group =>   3
Atom   8C    basis set group =>   3
Atom   9H    basis set group =>   4
Atom  10H    basis set group =>   4
Atom  11H    basis set group =>   4
Atom  12H    basis set group =>   4
Atom  13H    basis set group =>   4
-------------------------------
AUXILIARY BASIS SET INFORMATION
-------------------------------
There are 4 groups of distinct atoms

 Group   1 Type O   : 14s10p6d2f1g contracted to 10s8p4d2f1g pattern {5111111111/31111111/3111/11/1}
 Group   2 Type N   : 14s10p6d2f1g contracted to 10s8p4d2f1g pattern {5111111111/31111111/3111/11/1}
 Group   3 Type C   : 14s10p6d2f1g contracted to 10s8p5d1f1g pattern {5111111111/31111111/21111/2/1}
 Group   4 Type H   : 4s2p2d contracted to 2s2p2d pattern {31/11/11}

Atom   0O    basis set group =>   1
Atom   1N    basis set group =>   2
Atom   2C    basis set group =>   3
Atom   3C    basis set group =>   3
Atom   4C    basis set group =>   3
Atom   5C    basis set group =>   3
Atom   6O    basis set group =>   1
Atom   7C    basis set group =>   3
Atom   8C    basis set group =>   3
Atom   9H    basis set group =>   4
Atom  10H    basis set group =>   4
Atom  11H    basis set group =>   4
Atom  12H    basis set group =>   4
Atom  13H    basis set group =>   4
------------------------------------------------------------------------------
                           ORCA GTO INTEGRAL CALCULATION
                           -- RI-GTO INTEGRALS CHOSEN --
------------------------------------------------------------------------------

                         BASIS SET STATISTICS AND STARTUP INFO

Gaussian basis set:
 # of primitive gaussian shells          ...  210
 # of primitive gaussian functions       ...  454
 # of contracted shells                  ...  119
 # of contracted basis functions         ...  309
 Highest angular momentum                ...    3
 Maximum contraction depth               ...    6
Auxiliary gaussian basis set:
 # of primitive gaussian shells          ...  337
 # of primitive gaussian functions       ...  973
 # of contracted shells                  ...  255
 # of contracted aux-basis functions     ...  771
 Highest angular momentum                ...    4
 Maximum contraction depth               ...    5
Ratio of auxiliary to basis functions    ...  2.50
Integral package used                  ... LIBINT
 One Electron integrals                  ... done
 Ordering auxiliary basis shells         ... done
 Integral threshhold             Thresh  ...  2.500e-11
 Primitive cut-off               TCut    ...  2.500e-12
 Pre-screening matrix                    ... done
 Shell pair data                         ... 
 Ordering of the shell pairs             ... done (   0.001 sec) 6422 of 7140 pairs
 Determination of significant pairs      ... done (   0.000 sec)
 Creation of shell pair data             ... done (   0.002 sec)
 Storage of shell pair data              ... done (   0.001 sec)
 Shell pair data done in (   0.004 sec)
 Computing two index integrals           ... done
 Cholesky decomposition of the V-matrix  ... done


Timings:
 Total evaluation time                   ...   0.342 sec (  0.006 min)
 One electron matrix time                ...   0.061 sec (  0.001 min) = 18.0%
 Schwartz matrix evaluation time         ...   0.204 sec (  0.003 min) = 59.9%
 Two index repulsion integral time       ...   0.018 sec (  0.000 min) =  5.1%
 Cholesky decomposition of V             ...   0.026 sec (  0.000 min) =  7.7%
 Three index repulsion integral time     ...   0.000 sec (  0.000 min) =  0.0%

-------------------------------------------------------------------------------
                                 ORCA SCF
-------------------------------------------------------------------------------

------------
SCF SETTINGS
------------
Hamiltonian:
 Ab initio Hamiltonian  Method          .... Hartree-Fock(GTOs)
 RI-approximation to the Coulomb term is turned on
   Number of auxiliary basis functions  .... 771
   RI-JK (J+K treated both via RI)      .... on


General Settings:
 Integral files         IntName         .... dsgdb9nsd_022699
 Hartree-Fock type      HFTyp           .... RHF
 Total Charge           Charge          ....    0
 Multiplicity           Mult            ....    1
 Number of Electrons    NEL             ....   64
 Basis Dimension        Dim             ....  309
 Nuclear Repulsion      ENuc            ....    407.6935652417 Eh

Convergence Acceleration:
 DIIS                   CNVDIIS         .... on
   Start iteration      DIISMaxIt       ....    12
   Startup error        DIISStart       ....  0.200000
   # of expansion vecs  DIISMaxEq       ....     5
   Bias factor          DIISBfac        ....   1.050
   Max. coefficient     DIISMaxC        ....  10.000
 Newton-Raphson         CNVNR           .... off
 SOSCF                  CNVSOSCF        .... on
   Start iteration      SOSCFMaxIt      ....   150
   Startup grad/error   SOSCFStart      ....  0.003300
 Level Shifting         CNVShift        .... on
   Level shift para.    LevelShift      ....    0.2500
   Turn off err/grad.   ShiftErr        ....    0.0010
 Zerner damping         CNVZerner       .... off
 Static damping         CNVDamp         .... on
   Fraction old density DampFac         ....    0.7000
   Max. Damping (<1)    DampMax         ....    0.9800
   Min. Damping (>=0)   DampMin         ....    0.0000
   Turn off err/grad.   DampErr         ....    0.1000
 Fernandez-Rico         CNVRico         .... off

SCF Procedure:
 Maximum # iterations   MaxIter         ....   125
 SCF integral mode      SCFMode         .... Direct
   Integral package                     .... LIBINT
 Reset frequeny         DirectResetFreq ....    20
 Integral Threshold     Thresh          ....  2.500e-11 Eh
 Primitive CutOff       TCut            ....  2.500e-12 Eh

Convergence Tolerance:
 Convergence Check Mode ConvCheckMode   .... Total+1el-Energy
 Energy Change          TolE            ....  1.000e-08 Eh
 1-El. energy change                    ....  1.000e-05 Eh
 Orbital Gradient       TolG            ....  1.000e-05
 Orbital Rotation angle TolX            ....  1.000e-05
 DIIS Error             TolErr          ....  5.000e-07


Diagonalization of the overlap matrix:
Smallest eigenvalue                        ... 1.069e-05
Time for diagonalization                   ...    0.027 sec
Threshold for overlap eigenvalues          ... 1.000e-08
Number of eigenvalues below threshold      ... 0
Time for construction of square roots      ...    0.013 sec
Total time needed                          ...    0.040 sec

-------------------
DFT GRID GENERATION
-------------------

General Integration Accuracy     IntAcc      ...  4.340
Radial Grid Type                 RadialGrid  ... Gauss-Chebyshev
Angular Grid (max. acc.)         AngularGrid ... Lebedev-110
Angular grid pruning method      GridPruning ... 3 (G Style)
Weight generation scheme         WeightScheme... Becke
Basis function cutoff            BFCut       ...    1.0000e-11
Integration weight cutoff        WCut        ...    1.0000e-14
Grids for H and He will be reduced by one unit

# of grid points (after initial pruning)     ...  19040 (   0.0 sec)
# of grid points (after weights+screening)   ...  17842 (   0.1 sec)
nearest neighbour list constructed           ...    0.0 sec
Grid point re-assignment to atoms done       ...    0.0 sec
Grid point division into batches done        ...    0.0 sec
Reduced shell lists constructed in    1.0 sec

Total number of grid points                  ...    17842
Total number of batches                      ...      287
Average number of points per batch           ...       62
Average number of grid points per atom       ...     1274
Average number of shells per batch           ...    77.66 (65.26%)
Average number of basis functions per batch  ...   207.96 (67.30%)
Average number of large shells per batch     ...    60.80 (78.30%)
Average number of large basis fcns per batch ...   160.97 (77.40%)
Average number of aux-shells per batch       ...    77.66 (30.45%)
Average number of aux functions per batch    ...   207.96 (  inf%)
Maximum spatial batch extension              ...  20.98, 27.62, 22.47 au
Average spatial batch extension              ...   3.97,  3.84,  4.39 au

Time for grid setup =    1.048 sec

------------------------------
INITIAL GUESS: MODEL POTENTIAL
------------------------------
Loading Hartree-Fock densities                     ... done
Calculating cut-offs                               ... done
Setting up the integral package                    ... done
Initializing the effective Hamiltonian             ... done
Starting the Coulomb interaction                   ... done (   0.5 sec)
Reading the grid                                   ... done
Mapping shells                                     ... done
Starting the XC term evaluation                    ... done (   0.5 sec)
Transforming the Hamiltonian                       ... done (   0.0 sec)
Diagonalizing the Hamiltonian                      ... done (   0.0 sec)
Back transforming the eigenvectors                 ... done (   0.0 sec)
Now organizing SCF variables                       ... done
                      ------------------
                      INITIAL GUESS DONE (   2.2 sec)
                      ------------------
--------------
SCF ITERATIONS
--------------
ITER       Energy         Delta-E        Max-DP      RMS-DP      [F,P]     Damp
  0   -433.8871838071   0.000000000000 0.07355356  0.00143615  0.2972780 0.7000
  1   -433.7819762834   0.105207523705 0.05228687  0.00134316  0.2490353 0.7000
                               ***Turning on DIIS***
  2   -433.8125163422  -0.030540058811 0.04062784  0.00100577  0.1817815 0.7000
  3   -434.7901450153  -0.977628673113 0.03764687  0.00060420  0.1275872 0.7000
  4   -434.3283441511   0.461800864237 0.08254481  0.00140596  0.0840982 0.0000
  5   -434.2867550888   0.041589062281 0.01419518  0.00027626  0.0287171 0.0000
  6   -434.1756044992   0.111150589639 0.00623766  0.00014084  0.0063900 0.0000
  7   -434.1679568598   0.007647639380 0.00211980  0.00005967  0.0034853 0.0000
                      *** Initiating the SOSCF procedure ***
                           *** Shutting down DIIS ***
                      *** Re-Reading the Fockian *** 
                      *** Removing any level shift *** 
ITER      Energy       Delta-E        Grad      Rot      Max-DP    RMS-DP
  8   -434.17039187  -0.0024350139  0.000420  0.000420  0.001023  0.000032
  9   -434.18733720  -0.0169453290  0.000161  0.000284  0.000737  0.000013
 10   -434.18733858  -0.0000013734  0.000060  0.000167  0.000387  0.000008
 11   -434.18733903  -0.0000004525  0.000017  0.000026  0.000200  0.000003
 12   -434.18733907  -0.0000000379  0.000006  0.000020  0.000083  0.000002
 13   -434.18733907  -0.0000000080  0.000004  0.000003  0.000032  0.000000
                  ***Gradient check signals convergence***
              ***Rediagonalizing the Fockian in SOSCF/NRSCF***

               *****************************************************
               *                     SUCCESS                       *
               *           SCF CONVERGED AFTER  14 CYCLES          *
               *****************************************************


----------------
TOTAL SCF ENERGY
----------------

Total Energy       :         -434.18733908 Eh          -11814.83815 eV

Components:
Nuclear Repulsion  :          407.69356524 Eh           11093.90591 eV
Electronic Energy  :         -841.88090432 Eh          -22908.74406 eV

One Electron Energy:        -1400.36045408 Eh          -38105.74521 eV
Two Electron Energy:          558.47954977 Eh           15197.00115 eV

Virial components:
Potential Energy   :         -867.70665283 Eh          -23611.49841 eV
Kinetic Energy     :          433.51931375 Eh           11796.66026 eV
Virial Ratio       :            2.00154094


---------------
SCF CONVERGENCE
---------------

  Last Energy change         ...   -1.1461e-09  Tolerance :   1.0000e-08
  Last MAX-Density change    ...    5.3806e-06  Tolerance :   1.0000e-07
  Last RMS-Density change    ...    1.4908e-07  Tolerance :   5.0000e-09
  Last Orbital Gradient      ...    1.6191e-06  Tolerance :   1.0000e-05
  Last Orbital Rotation      ...    2.8189e-06  Tolerance :   1.0000e-05

             **** THE GBW FILE WAS UPDATED (dsgdb9nsd_022699.gbw) ****
             **** DENSITY FILE WAS UPDATED (dsgdb9nsd_022699.scfp.tmp) ****
             **** ENERGY FILE WAS UPDATED (dsgdb9nsd_022699.en.tmp) ****
----------------
ORBITAL ENERGIES
----------------

  NO   OCC          E(Eh)            E(eV) 
   0   2.0000     -20.602320      -560.6176 
   1   2.0000     -20.582141      -560.0685 
   2   2.0000     -15.628538      -425.2741 
   3   2.0000     -11.351522      -308.8906 
   4   2.0000     -11.329726      -308.2975 
   5   2.0000     -11.307054      -307.6806 
   6   2.0000     -11.270048      -306.6736 
   7   2.0000     -11.254945      -306.2626 
   8   2.0000     -11.251035      -306.1562 
   9   2.0000      -1.431980       -38.9662 
  10   2.0000      -1.416271       -38.5387 
  11   2.0000      -1.172302       -31.9000 
  12   2.0000      -1.084860       -29.5205 
  13   2.0000      -1.057085       -28.7647 
  14   2.0000      -0.937191       -25.5023 
  15   2.0000      -0.895231       -24.3605 
  16   2.0000      -0.793793       -21.6002 
  17   2.0000      -0.723661       -19.6918 
  18   2.0000      -0.717366       -19.5205 
  19   2.0000      -0.701931       -19.1005 
  20   2.0000      -0.669486       -18.2176 
  21   2.0000      -0.623543       -16.9675 
  22   2.0000      -0.589516       -16.0416 
  23   2.0000      -0.580313       -15.7911 
  24   2.0000      -0.557983       -15.1835 
  25   2.0000      -0.526925       -14.3383 
  26   2.0000      -0.522959       -14.2304 
  27   2.0000      -0.463637       -12.6162 
  28   2.0000      -0.440783       -11.9943 
  29   2.0000      -0.414385       -11.2760 
  30   2.0000      -0.402387       -10.9495 
  31   2.0000      -0.399735       -10.8773 
  32   0.0000       0.125982         3.4281 
  33   0.0000       0.142466         3.8767 
  34   0.0000       0.146500         3.9865 
  35   0.0000       0.149460         4.0670 
  36   0.0000       0.165469         4.5026 
  37   0.0000       0.171204         4.6587 
  38   0.0000       0.178604         4.8601 
  39   0.0000       0.199344         5.4244 
  40   0.0000       0.204100         5.5538 
  41   0.0000       0.228565         6.2196 
  42   0.0000       0.239133         6.5072 
  43   0.0000       0.250260         6.8099 
  44   0.0000       0.278328         7.5737 
  45   0.0000       0.292443         7.9578 
  46   0.0000       0.303792         8.2666 
  47   0.0000       0.317706         8.6452 
  48   0.0000       0.339021         9.2252 
  49   0.0000       0.341829         9.3016 
  50   0.0000       0.390118        10.6156 
  51   0.0000       0.393794        10.7157 
  52   0.0000       0.416025        11.3206 
  53   0.0000       0.424028        11.5384 
  54   0.0000       0.438101        11.9213 
  55   0.0000       0.459332        12.4991 
  56   0.0000       0.466220        12.6865 
  57   0.0000       0.488364        13.2891 
  58   0.0000       0.492472        13.4009 
  59   0.0000       0.497190        13.5292 
  60   0.0000       0.511051        13.9064 
  61   0.0000       0.514087        13.9890 
  62   0.0000       0.528902        14.3922 
  63   0.0000       0.536668        14.6035 
  64   0.0000       0.545732        14.8501 
  65   0.0000       0.559227        15.2173 
  66   0.0000       0.566212        15.4074 
  67   0.0000       0.578875        15.7520 
  68   0.0000       0.590922        16.0798 
  69   0.0000       0.593900        16.1608 
  70   0.0000       0.618560        16.8319 
  71   0.0000       0.638282        17.3685 
  72   0.0000       0.638733        17.3808 
  73   0.0000       0.642826        17.4922 
  74   0.0000       0.668743        18.1974 
  75   0.0000       0.696174        18.9439 
  76   0.0000       0.697363        18.9762 
  77   0.0000       0.707477        19.2514 
  78   0.0000       0.731723        19.9112 
  79   0.0000       0.742804        20.2127 
  80   0.0000       0.762018        20.7356 
  81   0.0000       0.782311        21.2878 
  82   0.0000       0.789922        21.4949 
  83   0.0000       0.806644        21.9499 
  84   0.0000       0.820558        22.3285 
  85   0.0000       0.844069        22.9683 
  86   0.0000       0.874014        23.7831 
  87   0.0000       0.890314        24.2267 
  88   0.0000       0.907850        24.7039 
  89   0.0000       0.961734        26.1701 
  90   0.0000       0.982346        26.7310 
  91   0.0000       0.990255        26.9462 
  92   0.0000       0.996154        27.1067 
  93   0.0000       1.032705        28.1013 
  94   0.0000       1.058367        28.7996 
  95   0.0000       1.075312        29.2607 
  96   0.0000       1.116705        30.3871 
  97   0.0000       1.144128        31.1333 
  98   0.0000       1.149786        31.2873 
  99   0.0000       1.152694        31.3664 
 100   0.0000       1.179258        32.0892 
 101   0.0000       1.192595        32.4522 
 102   0.0000       1.204308        32.7709 
 103   0.0000       1.223102        33.2823 
 104   0.0000       1.228976        33.4421 
 105   0.0000       1.254433        34.1349 
 106   0.0000       1.289663        35.0935 
 107   0.0000       1.304998        35.5108 
 108   0.0000       1.339724        36.4557 
 109   0.0000       1.367433        37.2097 
 110   0.0000       1.402361        38.1602 
 111   0.0000       1.412835        38.4452 
 112   0.0000       1.439009        39.1574 
 113   0.0000       1.452189        39.5161 
 114   0.0000       1.476324        40.1728 
 115   0.0000       1.493559        40.6418 
 116   0.0000       1.531824        41.6830 
 117   0.0000       1.563213        42.5372 
 118   0.0000       1.592540        43.3352 
 119   0.0000       1.615089        43.9488 
 120   0.0000       1.650715        44.9182 
 121   0.0000       1.699368        46.2421 
 122   0.0000       1.714455        46.6527 
 123   0.0000       1.724900        46.9369 
 124   0.0000       1.736595        47.2552 
 125   0.0000       1.745999        47.5110 
 126   0.0000       1.778475        48.3948 
 127   0.0000       1.797396        48.9096 
 128   0.0000       1.811167        49.2844 
 129   0.0000       1.863513        50.7088 
 130   0.0000       1.870771        50.9063 
 131   0.0000       1.886611        51.3373 
 132   0.0000       1.889728        51.4221 
 133   0.0000       1.894054        51.5398 
 134   0.0000       1.925334        52.3910 
 135   0.0000       1.952519        53.1307 
 136   0.0000       1.966314        53.5061 
 137   0.0000       1.995748        54.3071 
 138   0.0000       2.010374        54.7051 
 139   0.0000       2.035851        55.3983 
 140   0.0000       2.061212        56.0884 
 141   0.0000       2.087933        56.8155 
 142   0.0000       2.124988        57.8239 
 143   0.0000       2.144948        58.3670 
 144   0.0000       2.200532        59.8795 
 145   0.0000       2.212260        60.1987 
 146   0.0000       2.222374        60.4739 
 147   0.0000       2.228129        60.6305 
 148   0.0000       2.268642        61.7329 
 149   0.0000       2.284421        62.1622 
 150   0.0000       2.327287        63.3287 
 151   0.0000       2.338197        63.6256 
 152   0.0000       2.358728        64.1843 
 153   0.0000       2.365781        64.3762 
 154   0.0000       2.391392        65.0731 
 155   0.0000       2.472407        67.2776 
 156   0.0000       2.512377        68.3653 
 157   0.0000       2.534232        68.9600 
 158   0.0000       2.549880        69.3858 
 159   0.0000       2.562769        69.7365 
 160   0.0000       2.573620        70.0318 
 161   0.0000       2.605341        70.8949 
 162   0.0000       2.621758        71.3417 
 163   0.0000       2.663104        72.4667 
 164   0.0000       2.664723        72.5108 
 165   0.0000       2.702381        73.5355 
 166   0.0000       2.718509        73.9744 
 167   0.0000       2.750087        74.8337 
 168   0.0000       2.785058        75.7853 
 169   0.0000       2.798798        76.1592 
 170   0.0000       2.810758        76.4846 
 171   0.0000       2.826803        76.9212 
 172   0.0000       2.857332        77.7520 
 173   0.0000       2.863990        77.9331 
 174   0.0000       2.890859        78.6643 
 175   0.0000       2.905251        79.0559 
 176   0.0000       2.924926        79.5913 
 177   0.0000       2.933810        79.8330 
 178   0.0000       2.971328        80.8539 
 179   0.0000       2.988069        81.3095 
 180   0.0000       2.998273        81.5872 
 181   0.0000       3.037451        82.6532 
 182   0.0000       3.050545        83.0095 
 183   0.0000       3.069493        83.5252 
 184   0.0000       3.078220        83.7626 
 185   0.0000       3.099839        84.3509 
 186   0.0000       3.116823        84.8131 
 187   0.0000       3.128860        85.1406 
 188   0.0000       3.144192        85.5578 
 189   0.0000       3.163105        86.0725 
 190   0.0000       3.172895        86.3389 
 191   0.0000       3.201383        87.1141 
 192   0.0000       3.224213        87.7353 
 193   0.0000       3.247132        88.3590 
 194   0.0000       3.255102        88.5758 
 195   0.0000       3.270075        88.9833 
 196   0.0000       3.282040        89.3088 
 197   0.0000       3.297073        89.7179 
 198   0.0000       3.313827        90.1738 
 199   0.0000       3.341292        90.9212 
 200   0.0000       3.345538        91.0367 
 201   0.0000       3.373998        91.8112 
 202   0.0000       3.390273        92.2540 
 203   0.0000       3.400024        92.5194 
 204   0.0000       3.406401        92.6929 
 205   0.0000       3.430554        93.3501 
 206   0.0000       3.436036        93.4993 
 207   0.0000       3.453790        93.9824 
 208   0.0000       3.482642        94.7675 
 209   0.0000       3.498457        95.1979 
 210   0.0000       3.517242        95.7090 
 211   0.0000       3.528963        96.0280 
 212   0.0000       3.561028        96.9005 
 213   0.0000       3.584121        97.5289 
 214   0.0000       3.605583        98.1129 
 215   0.0000       3.618924        98.4759 
 216   0.0000       3.673350        99.9569 
 217   0.0000       3.689547       100.3977 
 218   0.0000       3.695136       100.5498 
 219   0.0000       3.745169       101.9112 
 220   0.0000       3.754040       102.1526 
 221   0.0000       3.789965       103.1302 
 222   0.0000       3.836725       104.4026 
 223   0.0000       3.874047       105.4182 
 224   0.0000       3.905555       106.2756 
 225   0.0000       3.913763       106.4989 
 226   0.0000       3.922936       106.7485 
 227   0.0000       3.968048       107.9761 
 228   0.0000       4.002853       108.9232 
 229   0.0000       4.034278       109.7783 
 230   0.0000       4.068338       110.7051 
 231   0.0000       4.079298       111.0033 
 232   0.0000       4.105830       111.7253 
 233   0.0000       4.131368       112.4202 
 234   0.0000       4.151822       112.9768 
 235   0.0000       4.201194       114.3203 
 236   0.0000       4.235307       115.2486 
 237   0.0000       4.247439       115.5787 
 238   0.0000       4.290882       116.7608 
 239   0.0000       4.316407       117.4554 
 240   0.0000       4.359967       118.6407 
 241   0.0000       4.388972       119.4300 
 242   0.0000       4.410253       120.0091 
 243   0.0000       4.437348       120.7464 
 244   0.0000       4.461122       121.3933 
 245   0.0000       4.488448       122.1369 
 246   0.0000       4.526923       123.1838 
 247   0.0000       4.614680       125.5718 
 248   0.0000       4.648012       126.4788 
 249   0.0000       4.713288       128.2551 
 250   0.0000       4.755119       129.3934 
 251   0.0000       4.806253       130.7848 
 252   0.0000       4.881751       132.8392 
 253   0.0000       4.902113       133.3933 
 254   0.0000       4.971501       135.2814 
 255   0.0000       4.995768       135.9418 
 256   0.0000       5.012849       136.4065 
 257   0.0000       5.098515       138.7376 
 258   0.0000       5.147626       140.0740 
 259   0.0000       5.217693       141.9806 
 260   0.0000       5.237495       142.5195 
 261   0.0000       5.256695       143.0419 
 262   0.0000       5.305038       144.3574 
 263   0.0000       5.339424       145.2931 
 264   0.0000       5.358920       145.8236 
 265   0.0000       5.413151       147.2993 
 266   0.0000       5.482375       149.1830 
 267   0.0000       5.547746       150.9618 
 268   0.0000       5.583354       151.9308 
 269   0.0000       5.643665       153.5719 
 270   0.0000       5.682483       154.6282 
 271   0.0000       5.694264       154.9488 
 272   0.0000       5.748749       156.4314 
 273   0.0000       5.841184       158.9467 
 274   0.0000       5.867080       159.6514 
 275   0.0000       5.920702       161.1105 
 276   0.0000       5.979057       162.6984 
 277   0.0000       6.040896       164.3811 
 278   0.0000       6.075662       165.3272 
 279   0.0000       6.116085       166.4271 
 280   0.0000       6.134298       166.9227 
 281   0.0000       6.164295       167.7390 
 282   0.0000       6.272678       170.6882 
 283   0.0000       6.311341       171.7403 
 284   0.0000       6.409111       174.4008 
 285   0.0000       6.465617       175.9384 
 286   0.0000       6.492932       176.6817 
 287   0.0000       6.597652       179.5312 
 288   0.0000       6.770593       184.2372 
 289   0.0000       6.891350       187.5232 
 290   0.0000       7.102682       193.2738 
 291   0.0000       7.162011       194.8882 
 292   0.0000       7.183395       195.4701 
 293   0.0000       7.309964       198.9142 
 294   0.0000       7.324852       199.3194 
 295   0.0000       7.378544       200.7804 
 296   0.0000       7.543582       205.2713 
 297   0.0000       7.630476       207.6358 
 298   0.0000       7.792682       212.0496 
 299   0.0000       7.981329       217.1830 
 300   0.0000      23.468068       638.5986 
 301   0.0000      23.571526       641.4138 
 302   0.0000      23.698706       644.8746 
 303   0.0000      24.561723       668.3585 
 304   0.0000      24.640607       670.5050 
 305   0.0000      25.049986       681.6448 
 306   0.0000      33.502866       911.6593 
 307   0.0000      45.233045      1230.8537 
 308   0.0000      45.905167      1249.1431 

                    ********************************
                    * MULLIKEN POPULATION ANALYSIS *
                    ********************************

-----------------------
MULLIKEN ATOMIC CHARGES
-----------------------
   0 O :   -0.408945
   1 N :   -0.159942
   2 C :    0.194345
   3 C :    0.078946
   4 C :   -0.109411
   5 C :   -0.155193
   6 O :   -0.373468
   7 C :   -0.084145
   8 C :    0.042251
   9 H :    0.353441
  10 H :    0.165882
  11 H :    0.125728
  12 H :    0.119015
  13 H :    0.211495
Sum of atomic charges:   -0.0000000

--------------------------------
MULLIKEN REDUCED ORBITAL CHARGES
--------------------------------
  0 O s       :     3.809905  s :     3.809905
      pz      :     1.920738  p :     4.557425
      px      :     1.486381
      py      :     1.150307
      dz2     :     0.005608  d :     0.039210
      dxz     :     0.001599
      dyz     :     0.004784
      dx2y2   :     0.019005
      dxy     :     0.008214
      f0      :     0.000234  f :     0.002404
      f+1     :     0.000397
      f-1     :     0.000574
      f+2     :     0.000152
      f-2     :     0.000014
      f+3     :     0.000388
      f-3     :     0.000645
  1 N s       :     3.617755  s :     3.617755
      pz      :     1.183014  p :     3.444461
      px      :     1.430957
      py      :     0.830489
      dz2     :     0.007969  d :     0.091287
      dxz     :     0.016985
      dyz     :     0.019380
      dx2y2   :     0.026046
      dxy     :     0.020908
      f0      :     0.000894  f :     0.006439
      f+1     :     0.000329
      f-1     :     0.000878
      f+2     :     0.000923
      f-2     :     0.000615
      f+3     :     0.001251
      f-3     :     0.001549
  2 C s       :     3.041249  s :     3.041249
      pz      :     0.824873  p :     2.631893
      px      :     0.880263
      py      :     0.926757
      dz2     :     0.004062  d :     0.114461
      dxz     :     0.040169
      dyz     :     0.014418
      dx2y2   :     0.051052
      dxy     :     0.004760
      f0      :     0.002722  f :     0.018052
      f+1     :     0.001725
      f-1     :     0.001286
      f+2     :     0.001824
      f-2     :     0.002254
      f+3     :     0.005208
      f-3     :     0.003032
  3 C s       :     3.146077  s :     3.146077
      pz      :     0.797622  p :     2.623879
      px      :     0.928965
      py      :     0.897292
      dz2     :     0.029736  d :     0.136705
      dxz     :     0.019046
      dyz     :     0.037095
      dx2y2   :     0.026744
      dxy     :     0.024085
      f0      :     0.001904  f :     0.014391
      f+1     :     0.001024
      f-1     :     0.002819
      f+2     :     0.002221
      f-2     :     0.002212
      f+3     :     0.002499
      f-3     :     0.001712
  4 C s       :     3.180905  s :     3.180905
      pz      :     0.923644  p :     2.835878
      px      :     0.965610
      py      :     0.946624
      dz2     :     0.019683  d :     0.085312
      dxz     :     0.012126
      dyz     :     0.021519
      dx2y2   :     0.013287
      dxy     :     0.018699
      f0      :     0.001312  f :     0.007316
      f+1     :     0.001178
      f-1     :     0.001364
      f+2     :     0.001040
      f-2     :     0.001068
      f+3     :     0.000456
      f-3     :     0.000897
  5 C s       :     3.411924  s :     3.411924
      pz      :     0.796738  p :     2.539391
      px      :     0.826682
      py      :     0.915971
      dz2     :     0.034285  d :     0.187208
      dxz     :     0.042672
      dyz     :     0.034957
      dx2y2   :     0.032700
      dxy     :     0.042594
      f0      :     0.002324  f :     0.016669
      f+1     :     0.002339
      f-1     :     0.002066
      f+2     :     0.002021
      f-2     :     0.002638
      f+3     :     0.002936
      f-3     :     0.002345
  6 O s       :     3.827524  s :     3.827524
      pz      :     1.491159  p :     4.507167
      px      :     1.623830
      py      :     1.392178
      dz2     :     0.004691  d :     0.037072
      dxz     :     0.009894
      dyz     :     0.013692
      dx2y2   :     0.005782
      dxy     :     0.003013
      f0      :     0.000195  f :     0.001705
      f+1     :     0.000287
      f-1     :     0.000271
      f+2     :     0.000442
      f-2     :     0.000288
      f+3     :     0.000097
      f-3     :     0.000126
  7 C s       :     3.320728  s :     3.320728
      pz      :     0.988931  p :     2.657796
      px      :     0.909496
      py      :     0.759369
      dz2     :     0.004952  d :     0.093119
      dxz     :     0.009253
      dyz     :     0.026097
      dx2y2   :     0.034757
      dxy     :     0.018060
      f0      :     0.001711  f :     0.012503
      f+1     :     0.000493
      f-1     :     0.001011
      f+2     :     0.000875
      f-2     :     0.002110
      f+3     :     0.001847
      f-3     :     0.004456
  8 C s       :     2.952423  s :     2.952423
      pz      :     0.943440  p :     2.984804
      px      :     0.996900
      py      :     1.044464
      dz2     :    -0.002945  d :     0.012151
      dxz     :     0.002897
      dyz     :     0.009546
      dx2y2   :     0.005915
      dxy     :    -0.003262
      f0      :     0.001018  f :     0.008371
      f+1     :     0.000369
      f-1     :     0.000851
      f+2     :     0.000536
      f-2     :     0.001256
      f+3     :     0.001735
      f-3     :     0.002606
  9 H s       :     0.602124  s :     0.602124
      pz      :     0.015656  p :     0.044435
      px      :     0.019461
      py      :     0.009318
 10 H s       :     0.812373  s :     0.812373
      pz      :     0.002966  p :     0.021744
      px      :     0.007645
      py      :     0.011133
 11 H s       :     0.851575  s :     0.851575
      pz      :     0.002980  p :     0.022697
      px      :     0.012430
      py      :     0.007287
 12 H s       :     0.858543  s :     0.858543
      pz      :     0.014235  p :     0.022443
      px      :     0.004242
      py      :     0.003966
 13 H s       :     0.764168  s :     0.764168
      pz      :     0.003313  p :     0.024337
      px      :     0.006728
      py      :     0.014296


                     *******************************
                     * LOEWDIN POPULATION ANALYSIS *
                     *******************************

----------------------
LOEWDIN ATOMIC CHARGES
----------------------
   0 O :   -0.107695
   1 N :    0.012905
   2 C :   -0.166125
   3 C :   -0.139792
   4 C :   -0.116151
   5 C :   -0.183739
   6 O :    0.105819
   7 C :   -0.061336
   8 C :   -0.039021
   9 H :    0.172110
  10 H :    0.128324
  11 H :    0.135056
  12 H :    0.129306
  13 H :    0.130337

-------------------------------
LOEWDIN REDUCED ORBITAL CHARGES
-------------------------------
  0 O s       :     3.437684  s :     3.437684
      pz      :     1.851873  p :     4.574994
      px      :     1.498866
      py      :     1.224255
      dz2     :     0.011479  d :     0.088546
      dxz     :     0.000609
      dyz     :     0.014771
      dx2y2   :     0.033522
      dxy     :     0.028165
      f0      :     0.000478  f :     0.006471
      f+1     :     0.000472
      f-1     :     0.001002
      f+2     :     0.000677
      f-2     :     0.000024
      f+3     :     0.002110
      f-3     :     0.001707
  1 N s       :     3.155162  s :     3.155162
      pz      :     1.101877  p :     3.514384
      px      :     1.486772
      py      :     0.925735
      dz2     :     0.026847  d :     0.288004
      dxz     :     0.020382
      dyz     :     0.063794
      dx2y2   :     0.103610
      dxy     :     0.073371
      f0      :     0.002149  f :     0.029545
      f+1     :     0.001382
      f-1     :     0.003422
      f+2     :     0.004953
      f-2     :     0.001703
      f+3     :     0.008682
      f-3     :     0.007255
  2 C s       :     2.735654  s :     2.735654
      pz      :     0.754972  p :     2.711938
      px      :     1.026113
      py      :     0.930854
      dz2     :     0.045914  d :     0.643651
      dxz     :     0.144418
      dyz     :     0.061556
      dx2y2   :     0.239793
      dxy     :     0.151969
      f0      :     0.007319  f :     0.074882
      f+1     :     0.007750
      f-1     :     0.004258
      f+2     :     0.008120
      f-2     :     0.007275
      f+3     :     0.024925
      f-3     :     0.015236
  3 C s       :     2.760481  s :     2.760481
      pz      :     0.839691  p :     2.704030
      px      :     0.963481
      py      :     0.900858
      dz2     :     0.128506  d :     0.585771
      dxz     :     0.069706
      dyz     :     0.131044
      dx2y2   :     0.107848
      dxy     :     0.148667
      f0      :     0.010862  f :     0.089509
      f+1     :     0.006196
      f-1     :     0.018173
      f+2     :     0.018712
      f-2     :     0.011225
      f+3     :     0.013663
      f-3     :     0.010677
  4 C s       :     2.791124  s :     2.791124
      pz      :     0.982405  p :     2.921681
      px      :     0.974681
      py      :     0.964595
      dz2     :     0.109497  d :     0.364374
      dxz     :     0.059353
      dyz     :     0.067948
      dx2y2   :     0.049774
      dxy     :     0.077803
      f0      :     0.004997  f :     0.038972
      f+1     :     0.005258
      f-1     :     0.006553
      f+2     :     0.007912
      f-2     :     0.007516
      f+3     :     0.003011
      f-3     :     0.003725
  5 C s       :     2.689612  s :     2.689612
      pz      :     0.820683  p :     2.669877
      px      :     0.884376
      py      :     0.964818
      dz2     :     0.135813  d :     0.725323
      dxz     :     0.148911
      dyz     :     0.106897
      dx2y2   :     0.145655
      dxy     :     0.188047
      f0      :     0.012837  f :     0.098926
      f+1     :     0.013719
      f-1     :     0.011896
      f+2     :     0.016138
      f-2     :     0.015054
      f+3     :     0.013540
      f-3     :     0.015742
  6 O s       :     3.393771  s :     3.393771
      pz      :     1.496381  p :     4.417863
      px      :     1.556133
      py      :     1.365349
      dz2     :     0.014771  d :     0.077240
      dxz     :     0.016862
      dyz     :     0.022045
      dx2y2   :     0.013025
      dxy     :     0.010538
      f0      :     0.000754  f :     0.005306
      f+1     :     0.000633
      f-1     :     0.001018
      f+2     :     0.001204
      f-2     :     0.000956
      f+3     :     0.000403
      f-3     :     0.000338
  7 C s       :     2.790839  s :     2.790839
      pz      :     0.888778  p :     2.908396
      px      :     0.938738
      py      :     1.080879
      dz2     :     0.025390  d :     0.315781
      dxz     :     0.027370
      dyz     :     0.075125
      dx2y2   :     0.101369
      dxy     :     0.086526
      f0      :     0.004546  f :     0.046320
      f+1     :     0.002372
      f-1     :     0.006447
      f+2     :     0.002169
      f-2     :     0.005763
      f+3     :     0.013263
      f-3     :     0.011759
  8 C s       :     2.885201  s :     2.885201
      pz      :     0.908029  p :     2.970440
      px      :     0.974513
      py      :     1.087897
      dz2     :     0.016463  d :     0.147156
      dxz     :     0.009648
      dyz     :     0.032338
      dx2y2   :     0.042499
      dxy     :     0.046208
      f0      :     0.003611  f :     0.036225
      f+1     :     0.001922
      f-1     :     0.005058
      f+2     :     0.001886
      f-2     :     0.004344
      f+3     :     0.010618
      f-3     :     0.008786
  9 H s       :     0.670872  s :     0.670872
      pz      :     0.045973  p :     0.157018
      px      :     0.084148
      py      :     0.026896
 10 H s       :     0.810864  s :     0.810864
      pz      :     0.009581  p :     0.060813
      px      :     0.021374
      py      :     0.029858
 11 H s       :     0.804171  s :     0.804171
      pz      :     0.009893  p :     0.060773
      px      :     0.030959
      py      :     0.019920
 12 H s       :     0.810366  s :     0.810366
      pz      :     0.033675  p :     0.060328
      px      :     0.013803
      py      :     0.012850
 13 H s       :     0.799702  s :     0.799702
      pz      :     0.011859  p :     0.069961
      px      :     0.020045
      py      :     0.038057


                      *****************************
                      * MAYER POPULATION ANALYSIS *
                      *****************************

  NA   - Mulliken gross atomic population
  ZA   - Total nuclear charge
  QA   - Mulliken gross atomic charge
  VA   - Mayer's total valence
  BVA  - Mayer's bonded valence
  FA   - Mayer's free valence

  ATOM       NA         ZA         QA         VA         BVA        FA
  0 O      8.4089     8.0000    -0.4089     1.8111     1.8111     0.0000
  1 N      7.1599     7.0000    -0.1599     2.8688     2.8688     0.0000
  2 C      5.8057     6.0000     0.1943     4.0771     4.0771     0.0000
  3 C      5.9211     6.0000     0.0789     3.8918     3.8918    -0.0000
  4 C      6.1094     6.0000    -0.1094     3.8328     3.8328    -0.0000
  5 C      6.1552     6.0000    -0.1552     3.9959     3.9959     0.0000
  6 O      8.3735     8.0000    -0.3735     1.9100     1.9100    -0.0000
  7 C      6.0841     6.0000    -0.0841     4.3146     4.3146     0.0000
  8 C      5.9577     6.0000     0.0423     3.5034     3.5034    -0.0000
  9 H      0.6466     1.0000     0.3534     0.8878     0.8878    -0.0000
 10 H      0.8341     1.0000     0.1659     0.9663     0.9663     0.0000
 11 H      0.8743     1.0000     0.1257     0.9886     0.9886     0.0000
 12 H      0.8810     1.0000     0.1190     0.9733     0.9733    -0.0000
 13 H      0.7885     1.0000     0.2115     0.9630     0.9630    -0.0000

  Mayer bond orders larger than 0.1
B(  0-O ,  1-N ) :   0.8454 B(  0-O ,  9-H ) :   0.8837 B(  1-N ,  2-C ) :   2.0059 
B(  2-C ,  3-C ) :   0.9808 B(  2-C ,  5-C ) :   1.0298 B(  3-C ,  4-C ) :   1.0039 
B(  3-C ,  6-O ) :   0.9337 B(  3-C , 10-H ) :   0.9170 B(  4-C ,  5-C ) :   0.9437 
B(  4-C , 11-H ) :   0.9716 B(  4-C , 12-H ) :   0.9605 B(  5-C ,  6-O ) :   0.9418 
B(  5-C ,  7-C ) :   1.2887 B(  5-C ,  8-C ) :  -0.2755 B(  7-C ,  8-C ) :   2.8681 
B(  8-C , 13-H ) :   0.8814 

-------
TIMINGS
-------

Total SCF time: 0 days 0 hours 1 min 45 sec 

Total time                  ....     105.860 sec
Sum of individual times     ....     108.956 sec  (102.9%)

Fock matrix formation       ....     104.602 sec  ( 98.8%)
Diagonalization             ....       0.556 sec  (  0.5%)
Density matrix formation    ....       0.037 sec  (  0.0%)
Population analysis         ....       0.125 sec  (  0.1%)
Initial guess               ....       2.165 sec  (  2.0%)
Orbital Transformation      ....       0.000 sec  (  0.0%)
Orbital Orthonormalization  ....       0.000 sec  (  0.0%)
DIIS solution               ....       0.162 sec  (  0.2%)
SOSCF solution              ....       0.261 sec  (  0.2%)

   <<< Auxbasis replaced with dsgdb9nsd_022699.AUXC.tmp (Dim=759) >>> 


------------------------------------------------------------------------------
                              ORCA MP2 CALCULATION
------------------------------------------------------------------------------

Freezing NCore=18 chemical core electrons

   <<< Use J-auxbasis for calculation of Separable RI-J derivative contributions dsgdb9nsd_022699.AUXJ.tmp (Dim=771) >>> 


---------------------
RI-MP2 ENERGY+DENSITY
---------------------
Dimension of the basis                    ...  309
Memory devoted to MP2                     ... 2000 MB   
Data format for buffers                   ... DOUBLE
Compression type for matrix containers    ... UNCOMPRESSED
Overall scaling of the MP2 energy         ...   1.000e+00 Eh
Calculating two index integrals           ... done (    0.015 sec)
Cholesky decomposition of V**-1           ... done (    0.093 sec)

-----------------
RI-TRANSFORMATION (AUX index driven)
-----------------

Dimension of the orbital-basis         ... 309
Dimension of the aux-basis             ... 759
Transformation of internal MOs         ...    0-  31
Transformation of internal/external MOs...    0-  31 to   32- 308
Number Format for Storage              ... Double (8 Byte)
Integral mode                          ... Direct

First Phase: integral generation and transformation of MO indices
  Aux angular momentum 0               ... done (    0.534 sec)
  Aux angular momentum 1               ... done (    0.749 sec)
  Aux angular momentum 2               ... done (    0.831 sec)
  Aux angular momentum 3               ... done (    0.719 sec)
  Aux angular momentum 4               ... done (    0.359 sec)
Closing buffer VIJ ( 0.00 GB; CompressionRatio= 1.93)
Closing buffer VIA ( 0.05 GB; CompressionRatio= 1.00)
  Phase 1 completed in     3.290 sec
Second Phase: sorting and transformation of aux index

IJ-Transformation
Memory available                       ... 1989 MB 
Max. # MO pairs treated in a batch     ... 32    
# of internal orbitals                 ... 32
# batches for internal orbitals        ... 1
Closing buffer IJV ( 0.00 GB; CompressionRatio= 1.00)
(ij|v) transformation done in     0.146 sec

IA-Transformation
Memory available                       ... 1989 MB 
Max. # MO pairs treated in a batch     ... 32    
# of internal orbitals                 ... 32
# batches for internal orbitals        ... 1
Closing buffer IAV ( 0.05 GB; CompressionRatio= 1.00)
(ia|v) transformation done in     1.076 sec

  Phase 2 completed in     1.239 sec
RI-Integral transformation completed in     4.530 sec
Opening buffers                              ... done
Frozen core precalculation                   ... done

Starting loop over batches of integrals:

Operator 0  - window                       ... (  9- 31)x( 32-308)
Operator 0  - Memory available             ...  2000 MB
Operator 0  - Memory needed per MO         ...   3.2 MB
Operator 0  - Number of orbitals per batch ... 23
Operator 0  - Number of batches            ... 1

OPERATOR  0   PASS   0:  MOs     9 ...   31
  Reading integrals       ... ok
  Internal MO  11
  Internal MO  14
  Internal MO  17
  Internal MO  20
  Internal MO  23
  Internal MO  26
  Internal MO  29
Time spent in pair loops =    25.440 sec
Deleting buffer (Ka|jb)[aa] ...done

-----------------------------------------------
 RI-MP2 CORRELATION ENERGY:     -1.593390842 Eh
-----------------------------------------------


---------------------
MP2 DENSITY FORMATION
---------------------

Completing the external part of the density      ... done
Storing the unrelaxed density                    ... done

Calculating G(D)                                 ... done
Completing the Lagrangian                        ... done
Solving the Z-vector equations                   ... 

------------------------------------------------------------------------------
                           ORCA CP-SCF CALCULATION
------------------------------------------------------------------------------

Input orbitals are from        ... dsgdb9nsd_022699.gbw
Input Perturbation             ... dsgdb9nsd_022699.pin.tmp
Wavefunction output            ... dsgdb9nsd_022699.pout.tmp
Perturbation mode              ... Real perturbation
Solver                         ... POPLE
Max. number of iterations      ... 128
Convergence tolerance          ... 1.000e-08
Integral handling              ... Direct
Number of perturbations        ... 1
Number of operators            ... 1
Orbital ranges used for CP-SCF:
 Operator 0:  Orbitals   0... 31  to  32...308
Variables per vector in CP-SCF ... 8864
Number of vectors sought       ... 1
     CP-SCF ITERATION   0: 
     CP-SCF ITERATION   1:      0.002318004
     CP-SCF ITERATION   2:      0.000335850
     CP-SCF ITERATION   3:      0.000045267
     CP-SCF ITERATION   4:      0.000013633
     CP-SCF ITERATION   5:      0.000002137
     CP-SCF ITERATION   6:      0.000000453
     CP-SCF ITERATION   7:      0.000000105
     CP-SCF ITERATION   8:      0.000000016
     CP-SCF ITERATION   9:      0.000000003
done
Finalizing the relaxed density                   ... done
Transforming P to the AO basis                   ... done
Storing the relaxed density                      ... done

                *********************************************
                * UNRELAXED MP2 DENSITY POPULATION ANALYSIS *
                *********************************************

------------------------------------------------------------------------------
                           ORCA POPULATION ANALYSIS
------------------------------------------------------------------------------
Input electron density              ... dsgdb9nsd_022699.pmp2ur
BaseName (.gbw .S,...)              ... dsgdb9nsd_022699

                    ********************************
                    * MULLIKEN POPULATION ANALYSIS *
                    ********************************

-----------------------
MULLIKEN ATOMIC CHARGES
-----------------------
   0 O :   -0.398929
   1 N :   -0.151358
   2 C :    0.179037
   3 C :    0.063831
   4 C :   -0.117575
   5 C :   -0.164338
   6 O :   -0.349887
   7 C :   -0.086347
   8 C :    0.039232
   9 H :    0.351063
  10 H :    0.169329
  11 H :    0.129173
  12 H :    0.122086
  13 H :    0.214683
Sum of atomic charges:   -0.0000000

--------------------------------
MULLIKEN REDUCED ORBITAL CHARGES
--------------------------------
  0 O s       :     3.804616  s :     3.804616
      pz      :     1.905905  p :     4.523680
      px      :     1.475318
      py      :     1.142457
      dz2     :     0.010923  d :     0.065606
      dxz     :     0.007289
      dyz     :     0.010444
      dx2y2   :     0.023492
      dxy     :     0.013458
      f0      :     0.000605  f :     0.005027
      f+1     :     0.000759
      f-1     :     0.000927
      f+2     :     0.000541
      f-2     :     0.000388
      f+3     :     0.000789
      f-3     :     0.001019
  1 N s       :     3.607430  s :     3.607430
      pz      :     1.172246  p :     3.419144
      px      :     1.415424
      py      :     0.831474
      dz2     :     0.012688  d :     0.115397
      dxz     :     0.021885
      dyz     :     0.024396
      dx2y2   :     0.030334
      dxy     :     0.026095
      f0      :     0.001277  f :     0.009387
      f+1     :     0.000745
      f-1     :     0.001181
      f+2     :     0.001379
      f-2     :     0.001039
      f+3     :     0.001797
      f-3     :     0.001970
  2 C s       :     3.042214  s :     3.042214
      pz      :     0.828923  p :     2.626366
      px      :     0.874926
      py      :     0.922517
      dz2     :     0.007085  d :     0.130699
      dxz     :     0.043468
      dyz     :     0.018921
      dx2y2   :     0.052054
      dxy     :     0.009171
      f0      :     0.003064  f :     0.021684
      f+1     :     0.002157
      f-1     :     0.001648
      f+2     :     0.002424
      f-2     :     0.002727
      f+3     :     0.005974
      f-3     :     0.003690
  3 C s       :     3.143941  s :     3.143941
      pz      :     0.797474  p :     2.618002
      px      :     0.924857
      py      :     0.895671
      dz2     :     0.033901  d :     0.156034
      dxz     :     0.024598
      dyz     :     0.038858
      dx2y2   :     0.029132
      dxy     :     0.029545
      f0      :     0.002466  f :     0.018193
      f+1     :     0.001509
      f-1     :     0.003281
      f+2     :     0.002746
      f-2     :     0.002822
      f+3     :     0.003007
      f-3     :     0.002360
  4 C s       :     3.177233  s :     3.177233
      pz      :     0.918301  p :     2.821099
      px      :     0.961309
      py      :     0.941489
      dz2     :     0.024979  d :     0.108176
      dxz     :     0.016395
      dyz     :     0.025071
      dx2y2   :     0.018171
      dxy     :     0.023559
      f0      :     0.001900  f :     0.011066
      f+1     :     0.001736
      f-1     :     0.001906
      f+2     :     0.001538
      f-2     :     0.001628
      f+3     :     0.000998
      f-3     :     0.001361
  5 C s       :     3.407859  s :     3.407859
      pz      :     0.795799  p :     2.524594
      px      :     0.822387
      py      :     0.906408
      dz2     :     0.039372  d :     0.210895
      dxz     :     0.044835
      dyz     :     0.040826
      dx2y2   :     0.038392
      dxy     :     0.047469
      f0      :     0.002956  f :     0.020990
      f+1     :     0.002787
      f-1     :     0.002616
      f+2     :     0.002688
      f-2     :     0.003283
      f+3     :     0.003512
      f-3     :     0.003147
  6 O s       :     3.819264  s :     3.819264
      pz      :     1.475606  p :     4.461331
      px      :     1.607933
      py      :     1.377791
      dz2     :     0.010395  d :     0.064860
      dxz     :     0.015295
      dyz     :     0.018879
      dx2y2   :     0.011466
      dxy     :     0.008824
      f0      :     0.000600  f :     0.004432
      f+1     :     0.000687
      f-1     :     0.000672
      f+2     :     0.000832
      f-2     :     0.000683
      f+3     :     0.000466
      f-3     :     0.000493
  7 C s       :     3.319158  s :     3.319158
      pz      :     0.980312  p :     2.635971
      px      :     0.902080
      py      :     0.753578
      dz2     :     0.009837  d :     0.115424
      dxz     :     0.013905
      dyz     :     0.030551
      dx2y2   :     0.038838
      dxy     :     0.022293
      f0      :     0.002106  f :     0.015794
      f+1     :     0.000858
      f-1     :     0.001493
      f+2     :     0.001386
      f-2     :     0.002585
      f+3     :     0.002379
      f-3     :     0.004987
  8 C s       :     2.944904  s :     2.944904
      pz      :     0.938708  p :     2.966226
      px      :     0.990313
      py      :     1.037205
      dz2     :     0.002516  d :     0.038356
      dxz     :     0.007468
      dyz     :     0.013977
      dx2y2   :     0.011179
      dxy     :     0.003215
      f0      :     0.001370  f :     0.011282
      f+1     :     0.000701
      f-1     :     0.001276
      f+2     :     0.000990
      f-2     :     0.001677
      f+3     :     0.002196
      f-3     :     0.003071
  9 H s       :     0.602947  s :     0.602947
      pz      :     0.016517  p :     0.045991
      px      :     0.019477
      py      :     0.009997
 10 H s       :     0.805913  s :     0.805913
      pz      :     0.004105  p :     0.024757
      px      :     0.008639
      py      :     0.012014
 11 H s       :     0.845174  s :     0.845174
      pz      :     0.004050  p :     0.025653
      px      :     0.013303
      py      :     0.008300
 12 H s       :     0.852458  s :     0.852458
      pz      :     0.015031  p :     0.025456
      px      :     0.005340
      py      :     0.005084
 13 H s       :     0.758389  s :     0.758389
      pz      :     0.004371  p :     0.026927
      px      :     0.007648
      py      :     0.014909


                     *******************************
                     * LOEWDIN POPULATION ANALYSIS *
                     *******************************

----------------------
LOEWDIN ATOMIC CHARGES
----------------------
   0 O :   -0.099423
   1 N :    0.013785
   2 C :   -0.173931
   3 C :   -0.149038
   4 C :   -0.122926
   5 C :   -0.190754
   6 O :    0.122727
   7 C :   -0.059606
   8 C :   -0.042043
   9 H :    0.170762
  10 H :    0.130294
  11 H :    0.136959
  12 H :    0.131091
  13 H :    0.132102

-------------------------------
LOEWDIN REDUCED ORBITAL CHARGES
-------------------------------
  0 O s       :     3.433902  s :     3.433902
      pz      :     1.836739  p :     4.539416
      px      :     1.487654
      py      :     1.215023
      dz2     :     0.017660  d :     0.116697
      dxz     :     0.006159
      dyz     :     0.020178
      dx2y2   :     0.039474
      dxy     :     0.033226
      f0      :     0.000860  f :     0.009408
      f+1     :     0.000877
      f-1     :     0.001432
      f+2     :     0.001078
      f-2     :     0.000406
      f+3     :     0.002542
      f-3     :     0.002213
  1 N s       :     3.150413  s :     3.150413
      pz      :     1.092431  p :     3.486390
      px      :     1.470383
      py      :     0.923576
      dz2     :     0.032611  d :     0.315413
      dxz     :     0.026812
      dyz     :     0.068065
      dx2y2   :     0.108965
      dxy     :     0.078960
      f0      :     0.002752  f :     0.033999
      f+1     :     0.001985
      f-1     :     0.003938
      f+2     :     0.005427
      f-2     :     0.002282
      f+3     :     0.009403
      f-3     :     0.008212
  2 C s       :     2.734044  s :     2.734044
      pz      :     0.757644  p :     2.697058
      px      :     1.016660
      py      :     0.922754
      dz2     :     0.052001  d :     0.660148
      dxz     :     0.145443
      dyz     :     0.065287
      dx2y2   :     0.241592
      dxy     :     0.155826
      f0      :     0.008201  f :     0.082680
      f+1     :     0.008699
      f-1     :     0.004945
      f+2     :     0.009081
      f-2     :     0.008244
      f+3     :     0.026491
      f-3     :     0.017018
  3 C s       :     2.759821  s :     2.759821
      pz      :     0.836457  p :     2.689013
      px      :     0.955853
      py      :     0.896704
      dz2     :     0.131661  d :     0.604877
      dxz     :     0.074344
      dyz     :     0.135253
      dx2y2   :     0.112357
      dxy     :     0.151261
      f0      :     0.011534  f :     0.095327
      f+1     :     0.006939
      f-1     :     0.019081
      f+2     :     0.019791
      f-2     :     0.011836
      f+3     :     0.014664
      f-3     :     0.011482
  4 C s       :     2.789843  s :     2.789843
      pz      :     0.974652  p :     2.897814
      px      :     0.967086
      py      :     0.956075
      dz2     :     0.114263  d :     0.390342
      dxz     :     0.064932
      dyz     :     0.073594
      dx2y2   :     0.054957
      dxy     :     0.082598
      f0      :     0.005852  f :     0.044927
      f+1     :     0.006249
      f-1     :     0.007564
      f+2     :     0.008773
      f-2     :     0.008309
      f+3     :     0.003655
      f-3     :     0.004524
  5 C s       :     2.689208  s :     2.689208
      pz      :     0.817474  p :     2.651856
      px      :     0.878524
      py      :     0.955858
      dz2     :     0.139147  d :     0.743458
      dxz     :     0.152948
      dyz     :     0.111067
      dx2y2   :     0.149667
      dxy     :     0.190629
      f0      :     0.013638  f :     0.106232
      f+1     :     0.014678
      f-1     :     0.012862
      f+2     :     0.017044
      f-2     :     0.016163
      f+3     :     0.014923
      f-3     :     0.016925
  6 O s       :     3.389284  s :     3.389284
      pz      :     1.480723  p :     4.371590
      px      :     1.540244
      py      :     1.350623
      dz2     :     0.020506  d :     0.108016
      dxz     :     0.023262
      dyz     :     0.028585
      dx2y2   :     0.019167
      dxy     :     0.016496
      f0      :     0.001186  f :     0.008383
      f+1     :     0.001093
      f-1     :     0.001488
      f+2     :     0.001683
      f-2     :     0.001395
      f+3     :     0.000797
      f-3     :     0.000740
  7 C s       :     2.787256  s :     2.787256
      pz      :     0.878020  p :     2.874322
      px      :     0.928127
      py      :     1.068174
      dz2     :     0.031425  d :     0.344772
      dxz     :     0.032315
      dyz     :     0.080621
      dx2y2   :     0.106922
      dxy     :     0.093489
      f0      :     0.005405  f :     0.053256
      f+1     :     0.002893
      f-1     :     0.007270
      f+2     :     0.002972
      f-2     :     0.006826
      f+3     :     0.014400
      f-3     :     0.013491
  8 C s       :     2.881339  s :     2.881339
      pz      :     0.899492  p :     2.941270
      px      :     0.964659
      py      :     1.077119
      dz2     :     0.021941  d :     0.177599
      dxz     :     0.014703
      dyz     :     0.038325
      dx2y2   :     0.049306
      dxy     :     0.053325
      f0      :     0.004292  f :     0.041834
      f+1     :     0.002374
      f-1     :     0.005756
      f+2     :     0.002544
      f-2     :     0.005179
      f+3     :     0.011583
      f-3     :     0.010106
  9 H s       :     0.669061  s :     0.669061
      pz      :     0.046652  p :     0.160177
      px      :     0.085726
      py      :     0.027798
 10 H s       :     0.803910  s :     0.803910
      pz      :     0.010948  p :     0.065796
      px      :     0.023025
      py      :     0.031823
 11 H s       :     0.797145  s :     0.797145
      pz      :     0.011203  p :     0.065896
      px      :     0.033131
      py      :     0.021562
 12 H s       :     0.803336  s :     0.803336
      pz      :     0.036127  p :     0.065573
      px      :     0.015225
      py      :     0.014220
 13 H s       :     0.793442  s :     0.793442
      pz      :     0.013194  p :     0.074456
      px      :     0.021483
      py      :     0.039779


                      *****************************
                      * MAYER POPULATION ANALYSIS *
                      *****************************

  NA   - Mulliken gross atomic population
  ZA   - Total nuclear charge
  QA   - Mulliken gross atomic charge
  VA   - Mayer's total valence
  BVA  - Mayer's bonded valence
  FA   - Mayer's free valence

  ATOM       NA         ZA         QA         VA         BVA        FA
  0 O      8.3989     8.0000    -0.3989     2.1027     1.6791     0.4235
  1 N      7.1514     7.0000    -0.1514     3.0696     2.6169     0.4527
  2 C      5.8210     6.0000     0.1790     4.1576     3.7640     0.3936
  3 C      5.9362     6.0000     0.0638     3.9827     3.6287     0.3539
  4 C      6.1176     6.0000    -0.1176     3.9376     3.6084     0.3292
  5 C      6.1643     6.0000    -0.1643     4.0932     3.7197     0.3735
  6 O      8.3499     8.0000    -0.3499     2.2138     1.7316     0.4822
  7 C      6.0863     6.0000    -0.0863     4.4255     3.9908     0.4347
  8 C      5.9608     6.0000     0.0392     3.6506     3.2273     0.4233
  9 H      0.6489     1.0000     0.3511     0.8937     0.8448     0.0489
 10 H      0.8307     1.0000     0.1693     0.9726     0.9263     0.0463
 11 H      0.8708     1.0000     0.1292     0.9966     0.9466     0.0500
 12 H      0.8779     1.0000     0.1221     0.9819     0.9308     0.0511
 13 H      0.7853     1.0000     0.2147     0.9665     0.9262     0.0403

  Mayer bond orders larger than 0.1
B(  0-O ,  1-N ) :   0.7655 B(  0-O ,  9-H ) :   0.8419 B(  1-N ,  2-C ) :   1.8449 
B(  2-C ,  3-C ) :   0.9127 B(  2-C ,  5-C ) :   0.9628 B(  3-C ,  4-C ) :   0.9348 
B(  3-C ,  6-O ) :   0.8537 B(  3-C , 10-H ) :   0.8816 B(  4-C ,  5-C ) :   0.8758 
B(  4-C , 11-H ) :   0.9329 B(  4-C , 12-H ) :   0.9215 B(  5-C ,  6-O ) :   0.8618 
B(  5-C ,  7-C ) :   1.2292 B(  5-C ,  8-C ) :  -0.2659 B(  7-C ,  8-C ) :   2.6218 
B(  8-C , 13-H ) :   0.8507 


                *******************************************
                * RELAXED MP2 DENSITY POPULATION ANALYSIS *
                *******************************************

------------------------------------------------------------------------------
                           ORCA POPULATION ANALYSIS
------------------------------------------------------------------------------
Input electron density              ... dsgdb9nsd_022699.pmp2re
BaseName (.gbw .S,...)              ... dsgdb9nsd_022699

                    ********************************
                    * MULLIKEN POPULATION ANALYSIS *
                    ********************************

-----------------------
MULLIKEN ATOMIC CHARGES
-----------------------
   0 O :   -0.354889
   1 N :   -0.077024
   2 C :    0.120529
   3 C :   -0.025233
   4 C :   -0.115821
   5 C :   -0.207946
   6 O :   -0.259854
   7 C :    0.012145
   8 C :   -0.067947
   9 H :    0.341813
  10 H :    0.166407
  11 H :    0.135199
  12 H :    0.129821
  13 H :    0.202800
Sum of atomic charges:   -0.0000000

--------------------------------
MULLIKEN REDUCED ORBITAL CHARGES
--------------------------------
  0 O s       :     3.815575  s :     3.815575
      pz      :     1.881448  p :     4.470951
      px      :     1.449128
      py      :     1.140375
      dz2     :     0.010352  d :     0.063437
      dxz     :     0.007498
      dyz     :     0.010988
      dx2y2   :     0.020672
      dxy     :     0.013926
      f0      :     0.000617  f :     0.004926
      f+1     :     0.000740
      f-1     :     0.000904
      f+2     :     0.000541
      f-2     :     0.000386
      f+3     :     0.000773
      f-3     :     0.000965
  1 N s       :     3.568056  s :     3.568056
      pz      :     1.151283  p :     3.389309
      px      :     1.412126
      py      :     0.825900
      dz2     :     0.012180  d :     0.110579
      dxz     :     0.019323
      dyz     :     0.025357
      dx2y2   :     0.027971
      dxy     :     0.025748
      f0      :     0.001215  f :     0.009081
      f+1     :     0.000717
      f-1     :     0.001132
      f+2     :     0.001361
      f-2     :     0.000995
      f+3     :     0.001849
      f-3     :     0.001813
  2 C s       :     3.030720  s :     3.030720
      pz      :     0.899043  p :     2.714899
      px      :     0.896992
      py      :     0.918863
      dz2     :     0.006611  d :     0.113311
      dxz     :     0.035085
      dyz     :     0.018053
      dx2y2   :     0.045324
      dxy     :     0.008238
      f0      :     0.002900  f :     0.020541
      f+1     :     0.002175
      f-1     :     0.001569
      f+2     :     0.002287
      f-2     :     0.002484
      f+3     :     0.005762
      f-3     :     0.003363
  3 C s       :     3.208202  s :     3.208202
      pz      :     0.805399  p :     2.648737
      px      :     0.944938
      py      :     0.898400
      dz2     :     0.033287  d :     0.150781
      dxz     :     0.026874
      dyz     :     0.032889
      dx2y2   :     0.025889
      dxy     :     0.031841
      f0      :     0.002429  f :     0.017513
      f+1     :     0.001378
      f-1     :     0.003074
      f+2     :     0.002687
      f-2     :     0.002763
      f+3     :     0.002781
      f-3     :     0.002402
  4 C s       :     3.173376  s :     3.173376
      pz      :     0.917231  p :     2.835278
      px      :     0.969897
      py      :     0.948151
      dz2     :     0.023796  d :     0.096627
      dxz     :     0.014307
      dyz     :     0.020310
      dx2y2   :     0.016878
      dxy     :     0.021336
      f0      :     0.001832  f :     0.010540
      f+1     :     0.001698
      f-1     :     0.001822
      f+2     :     0.001401
      f-2     :     0.001530
      f+3     :     0.001014
      f-3     :     0.001244
  5 C s       :     3.392052  s :     3.392052
      pz      :     0.812776  p :     2.580221
      px      :     0.849099
      py      :     0.918346
      dz2     :     0.040435  d :     0.215404
      dxz     :     0.039939
      dyz     :     0.043065
      dx2y2   :     0.042914
      dxy     :     0.049052
      f0      :     0.002960  f :     0.020269
      f+1     :     0.002539
      f-1     :     0.002438
      f+2     :     0.002696
      f-2     :     0.003218
      f+3     :     0.003143
      f-3     :     0.003275
  6 O s       :     3.807609  s :     3.807609
      pz      :     1.454699  p :     4.384780
      px      :     1.576920
      py      :     1.353161
      dz2     :     0.011178  d :     0.063042
      dxz     :     0.014448
      dyz     :     0.017192
      dx2y2   :     0.011142
      dxy     :     0.009082
      f0      :     0.000611  f :     0.004423
      f+1     :     0.000684
      f-1     :     0.000663
      f+2     :     0.000817
      f-2     :     0.000686
      f+3     :     0.000471
      f-3     :     0.000490
  7 C s       :     3.201478  s :     3.201478
      pz      :     0.955912  p :     2.674678
      px      :     0.911064
      py      :     0.807701
      dz2     :     0.008300  d :     0.096341
      dxz     :     0.012215
      dyz     :     0.025674
      dx2y2   :     0.032842
      dxy     :     0.017310
      f0      :     0.002061  f :     0.015359
      f+1     :     0.000835
      f-1     :     0.001432
      f+2     :     0.001380
      f-2     :     0.002533
      f+3     :     0.002279
      f-3     :     0.004839
  8 C s       :     3.010054  s :     3.010054
      pz      :     0.957621  p :     3.020032
      px      :     1.004210
      py      :     1.058201
      dz2     :     0.002996  d :     0.027531
      dxz     :     0.005933
      dyz     :     0.008785
      dx2y2   :     0.007010
      dxy     :     0.002807
      f0      :     0.001237  f :     0.010330
      f+1     :     0.000665
      f-1     :     0.001201
      f+2     :     0.000920
      f-2     :     0.001513
      f+3     :     0.002048
      f-3     :     0.002746
  9 H s       :     0.611915  s :     0.611915
      pz      :     0.017449  p :     0.046272
      px      :     0.018622
      py      :     0.010201
 10 H s       :     0.810038  s :     0.810038
      pz      :     0.004274  p :     0.023555
      px      :     0.008214
      py      :     0.011067
 11 H s       :     0.840308  s :     0.840308
      pz      :     0.004236  p :     0.024493
      px      :     0.012231
      py      :     0.008025
 12 H s       :     0.845873  s :     0.845873
      pz      :     0.013663  p :     0.024305
      px      :     0.005395
      py      :     0.005247
 13 H s       :     0.771690  s :     0.771690
      pz      :     0.004669  p :     0.025510
      px      :     0.007388
      py      :     0.013453


                     *******************************
                     * LOEWDIN POPULATION ANALYSIS *
                     *******************************

----------------------
LOEWDIN ATOMIC CHARGES
----------------------
   0 O :   -0.075655
   1 N :    0.033964
   2 C :   -0.212284
   3 C :   -0.179348
   4 C :   -0.144320
   5 C :   -0.215865
   6 O :    0.169286
   7 C :   -0.055334
   8 C :   -0.039230
   9 H :    0.172353
  10 H :    0.134593
  11 H :    0.142299
  12 H :    0.137248
  13 H :    0.132292

-------------------------------
LOEWDIN REDUCED ORBITAL CHARGES
-------------------------------
  0 O s       :     3.441254  s :     3.441254
      pz      :     1.811906  p :     4.509311
      px      :     1.484053
      py      :     1.213352
      dz2     :     0.017770  d :     0.115635
      dxz     :     0.006274
      dyz     :     0.019909
      dx2y2   :     0.037903
      dxy     :     0.033779
      f0      :     0.000852  f :     0.009455
      f+1     :     0.000885
      f-1     :     0.001459
      f+2     :     0.001067
      f-2     :     0.000409
      f+3     :     0.002512
      f-3     :     0.002273
  1 N s       :     3.156295  s :     3.156295
      pz      :     1.076869  p :     3.460476
      px      :     1.457904
      py      :     0.925703
      dz2     :     0.032769  d :     0.315263
      dxz     :     0.026390
      dyz     :     0.069965
      dx2y2   :     0.107873
      dxy     :     0.078266
      f0      :     0.002555  f :     0.034003
      f+1     :     0.001994
      f-1     :     0.003966
      f+2     :     0.005455
      f-2     :     0.002446
      f+3     :     0.009366
      f-3     :     0.008220
  2 C s       :     2.740903  s :     2.740903
      pz      :     0.811356  p :     2.742771
      px      :     1.009165
      py      :     0.922250
      dz2     :     0.052662  d :     0.648549
      dxz     :     0.135843
      dyz     :     0.064364
      dx2y2   :     0.239885
      dxy     :     0.155795
      f0      :     0.007691  f :     0.080061
      f+1     :     0.009156
      f-1     :     0.004998
      f+2     :     0.008629
      f-2     :     0.007620
      f+3     :     0.025335
      f-3     :     0.016632
  3 C s       :     2.769952  s :     2.769952
      pz      :     0.844618  p :     2.713896
      px      :     0.967072
      py      :     0.902207
      dz2     :     0.130789  d :     0.601077
      dxz     :     0.079368
      dyz     :     0.131642
      dx2y2   :     0.109017
      dxy     :     0.150261
      f0      :     0.011398  f :     0.094423
      f+1     :     0.006765
      f-1     :     0.018898
      f+2     :     0.020632
      f-2     :     0.011386
      f+3     :     0.014114
      f-3     :     0.011230
  4 C s       :     2.800066  s :     2.800066
      pz      :     0.980708  p :     2.919355
      px      :     0.974165
      py      :     0.964482
      dz2     :     0.113455  d :     0.380738
      dxz     :     0.063003
      dyz     :     0.069376
      dx2y2   :     0.054127
      dxy     :     0.080777
      f0      :     0.005514  f :     0.044162
      f+1     :     0.006287
      f-1     :     0.007578
      f+2     :     0.008621
      f-2     :     0.008198
      f+3     :     0.003595
      f-3     :     0.004368
  5 C s       :     2.698769  s :     2.698769
      pz      :     0.824671  p :     2.664027
      px      :     0.883118
      py      :     0.956238
      dz2     :     0.138671  d :     0.747595
      dxz     :     0.152886
      dyz     :     0.115834
      dx2y2   :     0.152069
      dxy     :     0.188135
      f0      :     0.013513  f :     0.105474
      f+1     :     0.014485
      f-1     :     0.012723
      f+2     :     0.017481
      f-2     :     0.016162
      f+3     :     0.014248
      f-3     :     0.016862
  6 O s       :     3.398007  s :     3.398007
      pz      :     1.461820  p :     4.315355
      px      :     1.517064
      py      :     1.336471
      dz2     :     0.021449  d :     0.108854
      dxz     :     0.023229
      dyz     :     0.028013
      dx2y2   :     0.019305
      dxy     :     0.016857
      f0      :     0.001190  f :     0.008498
      f+1     :     0.001122
      f-1     :     0.001501
      f+2     :     0.001710
      f-2     :     0.001423
      f+3     :     0.000800
      f-3     :     0.000753
  7 C s       :     2.792907  s :     2.792907
      pz      :     0.877940  p :     2.875557
      px      :     0.932836
      py      :     1.064780
      dz2     :     0.031147  d :     0.332386
      dxz     :     0.030555
      dyz     :     0.076909
      dx2y2   :     0.102930
      dxy     :     0.090845
      f0      :     0.005578  f :     0.054484
      f+1     :     0.002982
      f-1     :     0.007412
      f+2     :     0.003154
      f-2     :     0.006942
      f+3     :     0.014794
      f-3     :     0.013622
  8 C s       :     2.888166  s :     2.888166
      pz      :     0.906201  p :     2.944076
      px      :     0.964290
      py      :     1.073586
      dz2     :     0.021486  d :     0.164335
      dxz     :     0.013291
      dyz     :     0.033251
      dx2y2   :     0.045283
      dxy     :     0.051025
      f0      :     0.004315  f :     0.042653
      f+1     :     0.002419
      f-1     :     0.005911
      f+2     :     0.002535
      f-2     :     0.005225
      f+3     :     0.011896
      f-3     :     0.010352
  9 H s       :     0.667735  s :     0.667735
      pz      :     0.047151  p :     0.159912
      px      :     0.085197
      py      :     0.027563
 10 H s       :     0.799005  s :     0.799005
      pz      :     0.011477  p :     0.066401
      px      :     0.023319
      py      :     0.031605
 11 H s       :     0.791036  s :     0.791036
      pz      :     0.011722  p :     0.066665
      px      :     0.033031
      py      :     0.021911
 12 H s       :     0.796353  s :     0.796353
      pz      :     0.035939  p :     0.066399
      px      :     0.015660
      py      :     0.014800
 13 H s       :     0.793778  s :     0.793778
      pz      :     0.014129  p :     0.073929
      px      :     0.021571
      py      :     0.038230


                      *****************************
                      * MAYER POPULATION ANALYSIS *
                      *****************************

  NA   - Mulliken gross atomic population
  ZA   - Total nuclear charge
  QA   - Mulliken gross atomic charge
  VA   - Mayer's total valence
  BVA  - Mayer's bonded valence
  FA   - Mayer's free valence

  ATOM       NA         ZA         QA         VA         BVA        FA
  0 O      8.3549     8.0000    -0.3549     2.1767     1.7655     0.4111
  1 N      7.0770     7.0000    -0.0770     3.2010     2.7660     0.4350
  2 C      5.8795     6.0000     0.1205     4.2433     3.8694     0.3739
  3 C      6.0252     6.0000    -0.0252     4.0342     3.6891     0.3452
  4 C      6.1158     6.0000    -0.1158     3.8563     3.5289     0.3274
  5 C      6.2079     6.0000    -0.2079     4.2611     3.8954     0.3657
  6 O      8.2599     8.0000    -0.2599     2.3258     1.8587     0.4671
  7 C      5.9879     6.0000     0.0121     4.4396     4.0218     0.4178
  8 C      6.0679     6.0000    -0.0679     3.7834     3.3652     0.4183
  9 H      0.6582     1.0000     0.3418     0.8994     0.8507     0.0488
 10 H      0.8336     1.0000     0.1664     0.9718     0.9262     0.0456
 11 H      0.8648     1.0000     0.1352     0.9945     0.9460     0.0485
 12 H      0.8702     1.0000     0.1298     0.9758     0.9267     0.0491
 13 H      0.7972     1.0000     0.2028     0.9695     0.9294     0.0400

  Mayer bond orders larger than 0.1
B(  0-O ,  1-N ) :   0.7906 B(  0-O ,  9-H ) :   0.8408 B(  1-N ,  2-C ) :   1.9390 
B(  2-C ,  3-C ) :   0.9000 B(  2-C ,  5-C ) :   0.9539 B(  3-C ,  4-C ) :   0.9223 
B(  3-C ,  6-O ) :   0.9024 B(  3-C , 10-H ) :   0.8802 B(  4-C ,  5-C ) :   0.8790 
B(  4-C , 11-H ) :   0.9067 B(  4-C , 12-H ) :   0.9064 B(  5-C ,  6-O ) :   0.9243 
B(  5-C ,  7-C ) :   1.2258 B(  5-C ,  8-C ) :  -0.1687 B(  7-C ,  8-C ) :   2.6381 
B(  8-C , 13-H ) :   0.8582 


-------
TIMINGS
-------

Total time                :  745.158 sec
Integral trafo            :    4.538 sec (  0.6%)
FC preparation            :    2.589 sec (  0.3%)
I/O of integrals          :    0.041 sec (  0.0%)
K(i,j) Operators          :    6.014 sec (  0.8%)
T(i,j) pair energies      :    0.584 sec (  0.1%)
V-calculation             :    0.015 sec (  0.0%)
V**(-1/2)                 :    0.093 sec (  0.0%)
Gamma(ia|P)               :    5.935 sec (  0.8%)
Gamma-Trafo               :    1.040 sec (  0.1%)
D(virtual)                :    2.253 sec (  0.3%)
D(internal)               :    2.132 sec (  0.3%)
W(virtual)                :    0.000 sec (  0.0%)
W(internal)               :    0.000 sec (  0.0%)
L(virtual)                :    7.074 sec (  0.9%)
L(internal)               :    0.152 sec (  0.0%)
G(D)                      :   73.700 sec (  9.9%)
G(Z)                      :    0.000 sec (  0.0%)
Z-Vector Solution         :  638.448 sec ( 85.7%)
3-Index Derivative        :    0.000 sec (  0.0%)
2-Index Derivative        :    0.000 sec (  0.0%)
Separable Gradient (RIJ)  :    0.000 sec (  0.0%)
Separable Gradient (X)    :    0.000 sec (  0.0%)


---------------------------------------
MP2 TOTAL ENERGY:     -435.780729917 Eh
---------------------------------------

-------------------------   --------------------
FINAL SINGLE POINT ENERGY      -435.780729917361
-------------------------   --------------------


                            ***************************************
                            *     ORCA property calculations      *
                            ***************************************

                                    ---------------------
                                    Active property flags
                                    ---------------------
   (+) Dipole Moment


------------------------------------------------------------------------------
                       ORCA ELECTRIC PROPERTIES CALCULATION
------------------------------------------------------------------------------

Dipole Moment Calculation                       ... on
Quadrupole Moment Calculation                   ... off
Polarizability Calculation                      ... off
GBWName                                         ... dsgdb9nsd_022699.gbw
Electron density file                           ... dsgdb9nsd_022699.scfp.tmp

-------------
DIPOLE MOMENT
-------------
                                X             Y             Z
Electronic contribution:      1.47653       0.10831       1.74373
Nuclear contribution   :     -1.53266      -0.19066      -2.57626
                        -----------------------------------------
Total Dipole Moment    :     -0.05613      -0.08235      -0.83252
                        -----------------------------------------
Magnitude (a.u.)       :      0.83847
Magnitude (Debye)      :      2.13121


                         *** MP2 UNRELAXED DENSITY ***

------------------------------------------------------------------------------
                       ORCA ELECTRIC PROPERTIES CALCULATION
------------------------------------------------------------------------------

Dipole Moment Calculation                       ... on
Quadrupole Moment Calculation                   ... off
Polarizability Calculation                      ... off
GBWName                                         ... dsgdb9nsd_022699.gbw
Electron density file                           ... dsgdb9nsd_022699.pmp2ur

-------------
DIPOLE MOMENT
-------------
                                X             Y             Z
Electronic contribution:      1.47519       0.12046       1.78193
Nuclear contribution   :     -1.53266      -0.19066      -2.57626
                        -----------------------------------------
Total Dipole Moment    :     -0.05747      -0.07020      -0.79433
                        -----------------------------------------
Magnitude (a.u.)       :      0.79949
Magnitude (Debye)      :      2.03214


                           *** MP2 RELAXED DENSITY ***

------------------------------------------------------------------------------
                       ORCA ELECTRIC PROPERTIES CALCULATION
------------------------------------------------------------------------------

Dipole Moment Calculation                       ... on
Quadrupole Moment Calculation                   ... off
Polarizability Calculation                      ... off
GBWName                                         ... dsgdb9nsd_022699.gbw
Electron density file                           ... dsgdb9nsd_022699.pmp2re

-------------
DIPOLE MOMENT
-------------
                                X             Y             Z
Electronic contribution:      1.57778       0.17587       1.86354
Nuclear contribution   :     -1.53266      -0.19066      -2.57626
                        -----------------------------------------
Total Dipole Moment    :      0.04512      -0.01479      -0.71271
                        -----------------------------------------
Magnitude (a.u.)       :      0.71429
Magnitude (Debye)      :      1.81559


Timings for individual modules:

Sum of individual times         ...      855.356 sec (=  14.256 min)
GTO integral calculation        ...        0.452 sec (=   0.008 min)   0.1 %
SCF iterations                  ...      108.081 sec (=   1.801 min)  12.6 %
MP2 module                      ...      746.824 sec (=  12.447 min)  87.3 %
                             ****ORCA TERMINATED NORMALLY****
TOTAL RUN TIME: 0 days 0 hours 14 minutes 15 seconds 804 msec
