
                                 *****************
                                 * O   R   C   A *
                                 *****************

           --- An Ab Initio, DFT and Semiempirical electronic structure package ---

                  #######################################################
                  #                        -***-                        #
                  #  Department of molecular theory and spectroscopy    #
                  #              Directorship: Frank Neese              #
                  # Max Planck Institute for Chemical Energy Conversion #
                  #                  D-45470 Muelheim/Ruhr              #
                  #                       Germany                       #
                  #                                                     #
                  #                  All rights reserved                #
                  #                        -***-                        #
                  #######################################################


                         Program Version 3.0.3 - RELEASE   -


 With contributions from (in alphabetic order):
   Ute Becker             : Parallelization
   Dmytro Bykov           : SCF Hessian
   Dmitry Ganyushin       : Spin-Orbit,Spin-Spin,Magnetic field MRCI
   Andreas Hansen         : Spin unrestricted coupled pair/coupled cluster methods
   Dimitrios Liakos       : Extrapolation schemes; parallel MDCI
   Robert Izsak           : Overlap fitted RIJCOSX, COSX-SCS-MP3
   Christian Kollmar      : KDIIS, OOCD, Brueckner-CCSD(T), CCSD density
   Simone Kossmann        : Meta GGA functionals, TD-DFT gradient, OOMP2, MP2 Hessian
   Taras Petrenko         : DFT Hessian,TD-DFT gradient, ASA and ECA modules, normal mode analysis, Resonance Raman, ABS, FL, XAS/XES, NRVS
   Christoph Reimann      : Effective Core Potentials
   Michael Roemelt        : Restricted open shell CIS
   Christoph Riplinger    : Improved optimizer, TS searches, QM/MM, DLPNO-CCSD
   Barbara Sandhoefer     : DKH picture change effects
   Igor Schapiro          : Molecular dynamics
   Kantharuban Sivalingam : CASSCF convergence, NEVPT2
   Boris Wezisla          : Elementary symmetry handling
   Frank Wennmohs         : Technical directorship


 We gratefully acknowledge several colleagues who have allowed us to
 interface, adapt or use parts of their codes:
   Stefan Grimme, W. Hujo, H. Kruse, T. Risthaus : VdW corrections, initial TS optimization,
                                                   DFT functionals, gCP
   Ed Valeev                                     : LibInt (2-el integral package), F12 methods
   Garnet Chan, S. Sharma, R. Olivares           : DMRG
   Ulf Ekstrom                                   : XCFun DFT Library
   Mihaly Kallay                                 : mrcc  (arbitrary order and MRCC methods)
   Andreas Klamt, Michael Diedenhofen            : otool_cosmo (COSMO solvation model)
   Frank Weinhold                                : gennbo (NPA and NBO analysis)
   Christopher J. Cramer and Donald G. Truhlar   : smd solvation model


 Your calculation uses the libint2 library for the computation of 2-el integrals
 For citations please refer to: http://libint.valeyev.net

 This ORCA versions uses:
   CBLAS   interface :  Fast vector & matrix operations
   LAPACKE interface :  Fast linear algebra routines
   SCALAPACK package :  Parallel linear algebra routines


Your calculation utilizes the basis: Ahlrichs-TZV
Cite in your paper:
H - Kr: A. Schaefer, H. Horn and R. Ahlrichs, J. Chem. Phys. 97, 2571 (1992).

The def2-TZV basis will be loaded
Cite in your paper:
 	F. Weigend, R. Ahlrichs, Phys. Chem. Chem. Phys. 2005, 7, 3297.

================================================================================
                                        WARNINGS
                       Please study these warnings very carefully!
================================================================================
Now building the actual basis set


INFO   : the flag for use of LIBINT has been found!

================================================================================
                                       INPUT FILE
================================================================================
NAME = dsgdb9nsd_119665.inp
|  1> ! RI-MP2 RIJK def2-TZVP def2-TZVP/C def2-TZVP/JK TIGHTSCF
|  2> % maxcore 2000
|  3> % mp2 density relaxed end
|  4> *xyz 0 1
|  5>  C       -0.0130300188     1.3275053054    -0.0365781406 
|  6>  O        0.0097907738    -0.0794575143    -0.0837880070 
|  7>  C       -1.2714469702    -0.6543668644     0.0825010479 
|  8>  C       -1.1188418345    -2.1398550509     0.0564649980 
|  9>  N       -0.4104485582    -2.9365848554     1.1122462547 
| 10>  C       -0.8590001287    -3.9658202368     0.1184721814 
| 11>  C       -2.2164371267    -3.2299757807    -0.1205546680 
| 12>  N       -2.1138777248    -3.1793935977    -1.6156123946 
| 13>  C       -0.6947237239    -3.0533436731    -1.1455488297 
| 14>  H        1.0134610857     1.6760708956    -0.1736600597 
| 15>  H       -0.6430436981     1.7526700837    -0.8338491149 
| 16>  H       -0.3884857076     1.6978304096     0.9305089138 
| 17>  H       -1.7165542934    -0.3413602293     1.0416268726 
| 18>  H       -1.9536096589    -0.3479954684    -0.7272671543 
| 19>  H        0.5984527489    -2.7837206483     1.0362653075 
| 20>  H       -0.6711630042    -5.0354823152     0.2301970564 
| 21>  H       -3.1543406874    -3.3341556542     0.4254447598 
| 22>  H       -2.2740968611    -4.1102097598    -2.0097945558 
| 23>  H        0.1589101081    -2.9395960660    -1.8159228474 
| 24> *
| 25> 
| 26>                          ****END OF INPUT****
================================================================================

                       ****************************
                       * Single Point Calculation *
                       ****************************

---------------------------------
CARTESIAN COORDINATES (ANGSTROEM)
---------------------------------
  C     -0.013030    1.327505   -0.036578
  O      0.009791   -0.079458   -0.083788
  C     -1.271447   -0.654367    0.082501
  C     -1.118842   -2.139855    0.056465
  N     -0.410449   -2.936585    1.112246
  C     -0.859000   -3.965820    0.118472
  C     -2.216437   -3.229976   -0.120555
  N     -2.113878   -3.179394   -1.615612
  C     -0.694724   -3.053344   -1.145549
  H      1.013461    1.676071   -0.173660
  H     -0.643044    1.752670   -0.833849
  H     -0.388486    1.697830    0.930509
  H     -1.716554   -0.341360    1.041627
  H     -1.953610   -0.347995   -0.727267
  H      0.598453   -2.783721    1.036265
  H     -0.671163   -5.035482    0.230197
  H     -3.154341   -3.334156    0.425445
  H     -2.274097   -4.110210   -2.009795
  H      0.158910   -2.939596   -1.815923

----------------------------
CARTESIAN COORDINATES (A.U.)
----------------------------
  NO LB      ZA    FRAG    MASS        X           Y           Z
   0 C     6.0000    0    12.011         -0.024623167051845          2.508621468533492         -0.069122668222066
   1 O     8.0000    0    15.999          0.018501881121171         -0.150152941309132         -0.158336386537077
   2 C     6.0000    0    12.011         -2.402686567481935         -1.236574164828784          0.155904386292519
   3 C     6.0000    0    12.011         -2.114304654379046         -4.043740012489121          0.106703382372411
   4 N     7.0000    0    14.007         -0.775635367060838         -5.549341145726740          2.101840814862623
   5 C     6.0000    0    12.011         -1.623274992246108         -7.494314143914727          0.223879977334239
   6 C     6.0000    0    12.011         -4.188459162518318         -6.103769644721488         -0.227815306685800
   7 N     7.0000    0    14.007         -3.994649980468556         -6.008183171595600         -3.053064964362714
   8 C     6.0000    0    12.011         -1.312837576908922         -5.769983334900178         -2.164773561166995
   9 H     1.0000    0     1.008          1.915163899359495          3.167314973720118         -0.328169953233415
  10 H     1.0000    0     1.008         -1.215176481552937          3.312066461309838         -1.575746464173635
  11 H     1.0000    0     1.008         -0.734131594306610          3.208434495987343          1.758407012254537
  12 H     1.0000    0     1.008         -3.243817508532708         -0.645077346389561          1.968389522946882
  13 H     1.0000    0     1.008         -3.691787227904312         -0.657616131121647         -1.374335747823249
  14 H     1.0000    0     1.008          1.130911799513343         -5.260469658628719          1.958257633258692
  15 H     1.0000    0     1.008         -1.268314269157839         -9.515682527931730          0.435009393430824
  16 H     1.0000    0     1.008         -5.960840032270905         -6.300641074303048          0.803974081133910
  17 H     1.0000    0     1.008         -4.297420269488956         -7.767170798992250         -3.797961295907914
  18 H     1.0000    0     1.008          0.300296584220821         -5.555031509092300         -3.431596861916473

--------------------------------
INTERNAL COORDINATES (ANGSTROEM)
--------------------------------
 C      0   0   0   0.000000     0.000     0.000
 O      1   0   0   1.407940     0.000     0.000
 C      2   1   0   1.414123   112.808     0.000
 C      3   2   1   1.493533   108.043   181.688
 N      4   3   2   1.500424   124.341    67.229
 C      5   4   3   1.499370    75.929   180.582
 C      4   3   2   1.557053   128.778   195.010
 N      7   4   3   1.499425    92.380    87.411
 C      8   7   4   1.500282    75.826    39.165
 H      1   2   3   1.092691   107.418   180.019
 H      1   2   3   1.101510   111.760   299.369
 H      1   2   3   1.101528   111.773    60.683
 H      3   2   1   1.102731   110.646   301.915
 H      3   2   1   1.102240   111.182    62.022
 H      5   4   3   1.023241   109.508   287.569
 H      6   5   4   1.091761   123.590   180.433
 H      7   4   3   1.090244   128.053   309.157
 H      8   7   4   1.023459   110.038   145.834
 H      9   8   7   1.091343   123.792   180.759

---------------------------
INTERNAL COORDINATES (A.U.)
---------------------------
 C      0   0   0   0.000000     0.000     0.000
 O      1   0   0   2.660620     0.000     0.000
 C      2   1   0   2.672305   112.808     0.000
 C      3   2   1   2.822369   108.043   181.688
 N      4   3   2   2.835391   124.341    67.229
 C      5   4   3   2.833399    75.929   180.582
 C      4   3   2   2.942404   128.778   195.010
 N      7   4   3   2.833502    92.380    87.411
 C      8   7   4   2.835122    75.826    39.165
 H      1   2   3   2.064887   107.418   180.019
 H      1   2   3   2.081551   111.760   299.369
 H      1   2   3   2.081587   111.773    60.683
 H      3   2   1   2.083860   110.646   301.915
 H      3   2   1   2.082932   111.182    62.022
 H      5   4   3   1.933646   109.508   287.569
 H      6   5   4   2.063129   123.590   180.433
 H      7   4   3   2.060263   128.053   309.157
 H      8   7   4   1.934057   110.038   145.834
 H      9   8   7   2.062340   123.792   180.759

---------------------
BASIS SET INFORMATION
---------------------
There are 4 groups of distinct atoms

 Group   1 Type C   : 11s6p2d1f contracted to 5s3p2d1f pattern {62111/411/11/1}
 Group   2 Type O   : 11s6p2d1f contracted to 5s3p2d1f pattern {62111/411/11/1}
 Group   3 Type N   : 11s6p2d1f contracted to 5s3p2d1f pattern {62111/411/11/1}
 Group   4 Type H   : 5s1p contracted to 3s1p pattern {311/1}

Atom   0C    basis set group =>   1
Atom   1O    basis set group =>   2
Atom   2C    basis set group =>   1
Atom   3C    basis set group =>   1
Atom   4N    basis set group =>   3
Atom   5C    basis set group =>   1
Atom   6C    basis set group =>   1
Atom   7N    basis set group =>   3
Atom   8C    basis set group =>   1
Atom   9H    basis set group =>   4
Atom  10H    basis set group =>   4
Atom  11H    basis set group =>   4
Atom  12H    basis set group =>   4
Atom  13H    basis set group =>   4
Atom  14H    basis set group =>   4
Atom  15H    basis set group =>   4
Atom  16H    basis set group =>   4
Atom  17H    basis set group =>   4
Atom  18H    basis set group =>   4
-------------------------------
AUXILIARY BASIS SET INFORMATION
-------------------------------
There are 4 groups of distinct atoms

 Group   1 Type C   : 14s10p6d2f1g contracted to 10s8p5d1f1g pattern {5111111111/31111111/21111/2/1}
 Group   2 Type O   : 14s10p6d2f1g contracted to 10s8p4d2f1g pattern {5111111111/31111111/3111/11/1}
 Group   3 Type N   : 14s10p6d2f1g contracted to 10s8p4d2f1g pattern {5111111111/31111111/3111/11/1}
 Group   4 Type H   : 4s2p2d contracted to 2s2p2d pattern {31/11/11}

Atom   0C    basis set group =>   1
Atom   1O    basis set group =>   2
Atom   2C    basis set group =>   1
Atom   3C    basis set group =>   1
Atom   4N    basis set group =>   3
Atom   5C    basis set group =>   1
Atom   6C    basis set group =>   1
Atom   7N    basis set group =>   3
Atom   8C    basis set group =>   1
Atom   9H    basis set group =>   4
Atom  10H    basis set group =>   4
Atom  11H    basis set group =>   4
Atom  12H    basis set group =>   4
Atom  13H    basis set group =>   4
Atom  14H    basis set group =>   4
Atom  15H    basis set group =>   4
Atom  16H    basis set group =>   4
Atom  17H    basis set group =>   4
Atom  18H    basis set group =>   4
------------------------------------------------------------------------------
                           ORCA GTO INTEGRAL CALCULATION
                           -- RI-GTO INTEGRALS CHOSEN --
------------------------------------------------------------------------------

                         BASIS SET STATISTICS AND STARTUP INFO

Gaussian basis set:
 # of primitive gaussian shells          ...  240
 # of primitive gaussian functions       ...  494
 # of contracted shells                  ...  139
 # of contracted basis functions         ...  339
 Highest angular momentum                ...    3
 Maximum contraction depth               ...    6
Auxiliary gaussian basis set:
 # of primitive gaussian shells          ...  377
 # of primitive gaussian functions       ... 1073
 # of contracted shells                  ...  285
 # of contracted aux-basis functions     ...  861
 Highest angular momentum                ...    4
 Maximum contraction depth               ...    5
Ratio of auxiliary to basis functions    ...  2.54
Integral package used                  ... LIBINT
 One Electron integrals                  ... done
 Ordering auxiliary basis shells         ... done
 Integral threshhold             Thresh  ...  2.500e-11
 Primitive cut-off               TCut    ...  2.500e-12
 Pre-screening matrix                    ... done
 Shell pair data                         ... 
 Ordering of the shell pairs             ... done (   0.002 sec) 8772 of 9730 pairs
 Determination of significant pairs      ... done (   0.000 sec)
 Creation of shell pair data             ... done (   0.002 sec)
 Storage of shell pair data              ... done (   0.002 sec)
 Shell pair data done in (   0.005 sec)
 Computing two index integrals           ... done
 Cholesky decomposition of the V-matrix  ... done


Timings:
 Total evaluation time                   ...   0.396 sec (  0.007 min)
 One electron matrix time                ...   0.092 sec (  0.002 min) = 23.2%
 Schwartz matrix evaluation time         ...   0.215 sec (  0.004 min) = 54.3%
 Two index repulsion integral time       ...   0.022 sec (  0.000 min) =  5.5%
 Cholesky decomposition of V             ...   0.034 sec (  0.001 min) =  8.7%
 Three index repulsion integral time     ...   0.000 sec (  0.000 min) =  0.0%

-------------------------------------------------------------------------------
                                 ORCA SCF
-------------------------------------------------------------------------------

------------
SCF SETTINGS
------------
Hamiltonian:
 Ab initio Hamiltonian  Method          .... Hartree-Fock(GTOs)
 RI-approximation to the Coulomb term is turned on
   Number of auxiliary basis functions  .... 861
   RI-JK (J+K treated both via RI)      .... on


General Settings:
 Integral files         IntName         .... dsgdb9nsd_119665
 Hartree-Fock type      HFTyp           .... RHF
 Total Charge           Charge          ....    0
 Multiplicity           Mult            ....    1
 Number of Electrons    NEL             ....   68
 Basis Dimension        Dim             ....  339
 Nuclear Repulsion      ENuc            ....    465.7243782019 Eh

Convergence Acceleration:
 DIIS                   CNVDIIS         .... on
   Start iteration      DIISMaxIt       ....    12
   Startup error        DIISStart       ....  0.200000
   # of expansion vecs  DIISMaxEq       ....     5
   Bias factor          DIISBfac        ....   1.050
   Max. coefficient     DIISMaxC        ....  10.000
 Newton-Raphson         CNVNR           .... off
 SOSCF                  CNVSOSCF        .... on
   Start iteration      SOSCFMaxIt      ....   150
   Startup grad/error   SOSCFStart      ....  0.003300
 Level Shifting         CNVShift        .... on
   Level shift para.    LevelShift      ....    0.2500
   Turn off err/grad.   ShiftErr        ....    0.0010
 Zerner damping         CNVZerner       .... off
 Static damping         CNVDamp         .... on
   Fraction old density DampFac         ....    0.7000
   Max. Damping (<1)    DampMax         ....    0.9800
   Min. Damping (>=0)   DampMin         ....    0.0000
   Turn off err/grad.   DampErr         ....    0.1000
 Fernandez-Rico         CNVRico         .... off

SCF Procedure:
 Maximum # iterations   MaxIter         ....   125
 SCF integral mode      SCFMode         .... Direct
   Integral package                     .... LIBINT
 Reset frequeny         DirectResetFreq ....    20
 Integral Threshold     Thresh          ....  2.500e-11 Eh
 Primitive CutOff       TCut            ....  2.500e-12 Eh

Convergence Tolerance:
 Convergence Check Mode ConvCheckMode   .... Total+1el-Energy
 Energy Change          TolE            ....  1.000e-08 Eh
 1-El. energy change                    ....  1.000e-05 Eh
 Orbital Gradient       TolG            ....  1.000e-05
 Orbital Rotation angle TolX            ....  1.000e-05
 DIIS Error             TolErr          ....  5.000e-07


Diagonalization of the overlap matrix:
Smallest eigenvalue                        ... 3.376e-05
Time for diagonalization                   ...    0.033 sec
Threshold for overlap eigenvalues          ... 1.000e-08
Number of eigenvalues below threshold      ... 0
Time for construction of square roots      ...    0.017 sec
Total time needed                          ...    0.050 sec

-------------------
DFT GRID GENERATION
-------------------

General Integration Accuracy     IntAcc      ...  4.340
Radial Grid Type                 RadialGrid  ... Gauss-Chebyshev
Angular Grid (max. acc.)         AngularGrid ... Lebedev-110
Angular grid pruning method      GridPruning ... 3 (G Style)
Weight generation scheme         WeightScheme... Becke
Basis function cutoff            BFCut       ...    1.0000e-11
Integration weight cutoff        WCut        ...    1.0000e-14
Grids for H and He will be reduced by one unit

# of grid points (after initial pruning)     ...  22996 (   0.0 sec)
# of grid points (after weights+screening)   ...  21136 (   0.1 sec)
nearest neighbour list constructed           ...    0.0 sec
Grid point re-assignment to atoms done       ...    0.0 sec
Grid point division into batches done        ...    0.0 sec
Reduced shell lists constructed in    1.3 sec

Total number of grid points                  ...    21136
Total number of batches                      ...      340
Average number of points per batch           ...       62
Average number of grid points per atom       ...     1112
Average number of shells per batch           ...    91.96 (66.16%)
Average number of basis functions per batch  ...   229.68 (67.75%)
Average number of large shells per batch     ...    71.24 (77.46%)
Average number of large basis fcns per batch ...   176.79 (76.97%)
Average number of aux-shells per batch       ...    91.96 (32.27%)
Average number of aux functions per batch    ...   229.68 (  inf%)
Maximum spatial batch extension              ...  20.90, 19.40, 21.40 au
Average spatial batch extension              ...   3.63,  3.49,  3.68 au

Time for grid setup =    1.388 sec

------------------------------
INITIAL GUESS: MODEL POTENTIAL
------------------------------
Loading Hartree-Fock densities                     ... done
Calculating cut-offs                               ... done
Setting up the integral package                    ... done
Initializing the effective Hamiltonian             ... done
Starting the Coulomb interaction                   ... done (   0.7 sec)
Reading the grid                                   ... done
Mapping shells                                     ... done
Starting the XC term evaluation                    ... done (   0.7 sec)
Transforming the Hamiltonian                       ... done (   0.0 sec)
Diagonalizing the Hamiltonian                      ... done (   0.0 sec)
Back transforming the eigenvectors                 ... done (   0.0 sec)
Now organizing SCF variables                       ... done
                      ------------------
                      INITIAL GUESS DONE (   3.0 sec)
                      ------------------
--------------
SCF ITERATIONS
--------------
ITER       Energy         Delta-E        Max-DP      RMS-DP      [F,P]     Damp
  0   -416.3954558942   0.000000000000 0.04714982  0.00094570  0.2961529 0.7000
  1   -416.2525867544   0.142869139754 0.05077164  0.00102324  0.2483260 0.7000
                               ***Turning on DIIS***
  2   -416.2881964859  -0.035609731483 0.03836310  0.00079607  0.1811985 0.7000
  3   -417.4321654718  -1.143968985876 0.02535123  0.00052595  0.1266782 0.7000
  4   -416.7040470458   0.728118425969 0.07885865  0.00127362  0.0837600 0.0000
  5   -416.8525702152  -0.148523169378 0.01008160  0.00026854  0.0204837 0.0000
  6   -416.6908680820   0.161702133170 0.00650682  0.00014928  0.0089219 0.0000
  7   -416.7095290849  -0.018661002878 0.00343237  0.00007824  0.0058265 0.0000
  8   -416.6956829953   0.013846089624 0.00259366  0.00005618  0.0037060 0.0000
                      *** Initiating the SOSCF procedure ***
                           *** Shutting down DIIS ***
                      *** Re-Reading the Fockian *** 
                      *** Removing any level shift *** 
ITER      Energy       Delta-E        Grad      Rot      Max-DP    RMS-DP
  9   -416.75295337  -0.0572703739  0.000126  0.000126  0.001092  0.000021
 10   -416.75536194  -0.0024085690  0.000043  0.000080  0.000322  0.000006
 11   -416.75536207  -0.0000001336  0.000022  0.000050  0.000169  0.000003
 12   -416.75536211  -0.0000000408  0.000006  0.000018  0.000039  0.000001
                  ***Gradient check signals convergence***
              ***Rediagonalizing the Fockian in SOSCF/NRSCF***

               *****************************************************
               *                     SUCCESS                       *
               *           SCF CONVERGED AFTER  13 CYCLES          *
               *****************************************************


----------------
TOTAL SCF ENERGY
----------------

Total Energy       :         -416.75536211 Eh          -11340.48994 eV

Components:
Nuclear Repulsion  :          465.72437820 Eh           12673.00461 eV
Electronic Energy  :         -882.47974032 Eh          -24013.49456 eV

One Electron Energy:        -1490.92608557 Eh          -40570.16134 eV
Two Electron Energy:          608.44634526 Eh           16556.66678 eV

Virial components:
Potential Energy   :         -832.87482966 Eh          -22663.67631 eV
Kinetic Energy     :          416.11946755 Eh           11323.18637 eV
Virial Ratio       :            2.00152815


---------------
SCF CONVERGENCE
---------------

  Last Energy change         ...   -2.3215e-09  Tolerance :   1.0000e-08
  Last MAX-Density change    ...    8.6494e-06  Tolerance :   1.0000e-07
  Last RMS-Density change    ...    1.7987e-07  Tolerance :   5.0000e-09
  Last Orbital Gradient      ...    1.3081e-06  Tolerance :   1.0000e-05
  Last Orbital Rotation      ...    4.0167e-06  Tolerance :   1.0000e-05

             **** THE GBW FILE WAS UPDATED (dsgdb9nsd_119665.gbw) ****
             **** DENSITY FILE WAS UPDATED (dsgdb9nsd_119665.scfp.tmp) ****
             **** ENERGY FILE WAS UPDATED (dsgdb9nsd_119665.en.tmp) ****
----------------
ORBITAL ENERGIES
----------------

  NO   OCC          E(Eh)            E(eV) 
   0   2.0000     -20.559126      -559.4423 
   1   2.0000     -15.552606      -423.2079 
   2   2.0000     -15.548172      -423.0873 
   3   2.0000     -11.278598      -306.9062 
   4   2.0000     -11.275798      -306.8301 
   5   2.0000     -11.274688      -306.7998 
   6   2.0000     -11.273782      -306.7752 
   7   2.0000     -11.272510      -306.7406 
   8   2.0000     -11.272148      -306.7307 
   9   2.0000      -1.380036       -37.5527 
  10   2.0000      -1.326488       -36.0956 
  11   2.0000      -1.176897       -32.0250 
  12   2.0000      -1.005975       -27.3740 
  13   2.0000      -0.951810       -25.9001 
  14   2.0000      -0.902274       -24.5521 
  15   2.0000      -0.881843       -23.9962 
  16   2.0000      -0.831055       -22.6142 
  17   2.0000      -0.711601       -19.3636 
  18   2.0000      -0.695228       -18.9181 
  19   2.0000      -0.676378       -18.4052 
  20   2.0000      -0.661378       -17.9970 
  21   2.0000      -0.654826       -17.8187 
  22   2.0000      -0.609074       -16.5738 
  23   2.0000      -0.585900       -15.9431 
  24   2.0000      -0.577923       -15.7261 
  25   2.0000      -0.545176       -14.8350 
  26   2.0000      -0.497380       -13.5344 
  27   2.0000      -0.490487       -13.3468 
  28   2.0000      -0.470893       -12.8136 
  29   2.0000      -0.457179       -12.4405 
  30   2.0000      -0.433480       -11.7956 
  31   2.0000      -0.424869       -11.5613 
  32   2.0000      -0.389450       -10.5975 
  33   2.0000      -0.371661       -10.1134 
  34   0.0000       0.144732         3.9384 
  35   0.0000       0.148224         4.0334 
  36   0.0000       0.159728         4.3464 
  37   0.0000       0.176960         4.8153 
  38   0.0000       0.182487         4.9657 
  39   0.0000       0.200341         5.4515 
  40   0.0000       0.207659         5.6507 
  41   0.0000       0.214008         5.8235 
  42   0.0000       0.225351         6.1321 
  43   0.0000       0.232582         6.3289 
  44   0.0000       0.244996         6.6667 
  45   0.0000       0.251958         6.8561 
  46   0.0000       0.268516         7.3067 
  47   0.0000       0.270803         7.3689 
  48   0.0000       0.274144         7.4598 
  49   0.0000       0.291329         7.9275 
  50   0.0000       0.306611         8.3433 
  51   0.0000       0.322736         8.7821 
  52   0.0000       0.329531         8.9670 
  53   0.0000       0.338837         9.2202 
  54   0.0000       0.369263        10.0482 
  55   0.0000       0.376545        10.2463 
  56   0.0000       0.382572        10.4103 
  57   0.0000       0.411828        11.2064 
  58   0.0000       0.424966        11.5639 
  59   0.0000       0.436994        11.8912 
  60   0.0000       0.451463        12.2849 
  61   0.0000       0.473617        12.8878 
  62   0.0000       0.479608        13.0508 
  63   0.0000       0.493295        13.4232 
  64   0.0000       0.498262        13.5584 
  65   0.0000       0.499394        13.5892 
  66   0.0000       0.513629        13.9766 
  67   0.0000       0.527425        14.3520 
  68   0.0000       0.534196        14.5362 
  69   0.0000       0.541656        14.7392 
  70   0.0000       0.558089        15.1864 
  71   0.0000       0.569950        15.5091 
  72   0.0000       0.572583        15.5808 
  73   0.0000       0.589980        16.0542 
  74   0.0000       0.603224        16.4146 
  75   0.0000       0.605131        16.4664 
  76   0.0000       0.610627        16.6160 
  77   0.0000       0.628885        17.1128 
  78   0.0000       0.643133        17.5005 
  79   0.0000       0.645781        17.5726 
  80   0.0000       0.654161        17.8006 
  81   0.0000       0.665417        18.1069 
  82   0.0000       0.677510        18.4360 
  83   0.0000       0.682511        18.5721 
  84   0.0000       0.691012        18.8034 
  85   0.0000       0.700902        19.0725 
  86   0.0000       0.708856        19.2889 
  87   0.0000       0.725679        19.7467 
  88   0.0000       0.749878        20.4052 
  89   0.0000       0.758896        20.6506 
  90   0.0000       0.776941        21.1416 
  91   0.0000       0.809911        22.0388 
  92   0.0000       0.822097        22.3704 
  93   0.0000       0.829404        22.5692 
  94   0.0000       0.839007        22.8305 
  95   0.0000       0.882989        24.0274 
  96   0.0000       0.911272        24.7970 
  97   0.0000       0.943569        25.6758 
  98   0.0000       0.954479        25.9727 
  99   0.0000       0.963799        26.2263 
 100   0.0000       0.974348        26.5133 
 101   0.0000       0.990444        26.9513 
 102   0.0000       1.004273        27.3277 
 103   0.0000       1.028941        27.9989 
 104   0.0000       1.053459        28.6661 
 105   0.0000       1.086871        29.5753 
 106   0.0000       1.098630        29.8953 
 107   0.0000       1.115552        30.3557 
 108   0.0000       1.140489        31.0343 
 109   0.0000       1.169949        31.8359 
 110   0.0000       1.180678        32.1279 
 111   0.0000       1.192146        32.4399 
 112   0.0000       1.229830        33.4654 
 113   0.0000       1.239591        33.7310 
 114   0.0000       1.261265        34.3208 
 115   0.0000       1.284797        34.9611 
 116   0.0000       1.312148        35.7054 
 117   0.0000       1.336411        36.3656 
 118   0.0000       1.358871        36.9768 
 119   0.0000       1.363960        37.1152 
 120   0.0000       1.374165        37.3929 
 121   0.0000       1.383876        37.6572 
 122   0.0000       1.398242        38.0481 
 123   0.0000       1.404273        38.2122 
 124   0.0000       1.439885        39.1813 
 125   0.0000       1.486434        40.4479 
 126   0.0000       1.502196        40.8768 
 127   0.0000       1.527279        41.5594 
 128   0.0000       1.530202        41.6389 
 129   0.0000       1.574428        42.8424 
 130   0.0000       1.595304        43.4104 
 131   0.0000       1.600407        43.5493 
 132   0.0000       1.644805        44.7574 
 133   0.0000       1.665869        45.3306 
 134   0.0000       1.669603        45.4322 
 135   0.0000       1.690377        45.9975 
 136   0.0000       1.719080        46.7785 
 137   0.0000       1.723462        46.8978 
 138   0.0000       1.763367        47.9837 
 139   0.0000       1.771190        48.1965 
 140   0.0000       1.788510        48.6678 
 141   0.0000       1.797797        48.9205 
 142   0.0000       1.805665        49.1346 
 143   0.0000       1.830142        49.8007 
 144   0.0000       1.846648        50.2498 
 145   0.0000       1.852833        50.4182 
 146   0.0000       1.868791        50.8524 
 147   0.0000       1.912671        52.0464 
 148   0.0000       1.915490        52.1231 
 149   0.0000       1.936074        52.6832 
 150   0.0000       1.944377        52.9092 
 151   0.0000       1.982089        53.9354 
 152   0.0000       1.999446        54.4077 
 153   0.0000       2.013599        54.7928 
 154   0.0000       2.052088        55.8402 
 155   0.0000       2.100227        57.1501 
 156   0.0000       2.119359        57.6707 
 157   0.0000       2.155694        58.6594 
 158   0.0000       2.174948        59.1834 
 159   0.0000       2.196820        59.7785 
 160   0.0000       2.222424        60.4752 
 161   0.0000       2.246983        61.1435 
 162   0.0000       2.253056        61.3088 
 163   0.0000       2.276162        61.9375 
 164   0.0000       2.291367        62.3513 
 165   0.0000       2.313566        62.9553 
 166   0.0000       2.319859        63.1266 
 167   0.0000       2.334371        63.5215 
 168   0.0000       2.353781        64.0496 
 169   0.0000       2.356233        64.1164 
 170   0.0000       2.380322        64.7719 
 171   0.0000       2.393544        65.1316 
 172   0.0000       2.405601        65.4597 
 173   0.0000       2.451656        66.7130 
 174   0.0000       2.461927        66.9924 
 175   0.0000       2.471614        67.2560 
 176   0.0000       2.510124        68.3040 
 177   0.0000       2.532311        68.9077 
 178   0.0000       2.552091        69.4459 
 179   0.0000       2.559197        69.6393 
 180   0.0000       2.568757        69.8994 
 181   0.0000       2.578244        70.1576 
 182   0.0000       2.609479        71.0075 
 183   0.0000       2.629070        71.5406 
 184   0.0000       2.639917        71.8358 
 185   0.0000       2.675490        72.8038 
 186   0.0000       2.690791        73.2202 
 187   0.0000       2.720620        74.0318 
 188   0.0000       2.732494        74.3549 
 189   0.0000       2.748335        74.7860 
 190   0.0000       2.779115        75.6236 
 191   0.0000       2.788534        75.8799 
 192   0.0000       2.792584        75.9901 
 193   0.0000       2.816971        76.6537 
 194   0.0000       2.836724        77.1912 
 195   0.0000       2.848634        77.5153 
 196   0.0000       2.858249        77.7769 
 197   0.0000       2.869113        78.0725 
 198   0.0000       2.896256        78.8111 
 199   0.0000       2.907025        79.1042 
 200   0.0000       2.918678        79.4213 
 201   0.0000       2.947391        80.2026 
 202   0.0000       2.965471        80.6946 
 203   0.0000       2.999293        81.6149 
 204   0.0000       3.008317        81.8605 
 205   0.0000       3.025105        82.3173 
 206   0.0000       3.048416        82.9516 
 207   0.0000       3.081071        83.8402 
 208   0.0000       3.090071        84.0851 
 209   0.0000       3.104442        84.4762 
 210   0.0000       3.135569        85.3232 
 211   0.0000       3.170979        86.2867 
 212   0.0000       3.185276        86.6758 
 213   0.0000       3.196906        86.9922 
 214   0.0000       3.220891        87.6449 
 215   0.0000       3.239705        88.1569 
 216   0.0000       3.277770        89.1927 
 217   0.0000       3.297219        89.7219 
 218   0.0000       3.310113        90.0728 
 219   0.0000       3.322556        90.4114 
 220   0.0000       3.344680        91.0134 
 221   0.0000       3.374947        91.8370 
 222   0.0000       3.400676        92.5371 
 223   0.0000       3.417091        92.9838 
 224   0.0000       3.425854        93.2222 
 225   0.0000       3.451193        93.9117 
 226   0.0000       3.484636        94.8218 
 227   0.0000       3.492038        95.0232 
 228   0.0000       3.493933        95.0747 
 229   0.0000       3.504463        95.3613 
 230   0.0000       3.531951        96.1093 
 231   0.0000       3.546389        96.5022 
 232   0.0000       3.565705        97.0278 
 233   0.0000       3.575245        97.2874 
 234   0.0000       3.595102        97.8277 
 235   0.0000       3.613430        98.3264 
 236   0.0000       3.620748        98.5256 
 237   0.0000       3.638196        99.0003 
 238   0.0000       3.657926        99.5372 
 239   0.0000       3.678954       100.1094 
 240   0.0000       3.712087       101.0110 
 241   0.0000       3.730253       101.5054 
 242   0.0000       3.767210       102.5110 
 243   0.0000       3.782711       102.9328 
 244   0.0000       3.783707       102.9599 
 245   0.0000       3.814257       103.7912 
 246   0.0000       3.829768       104.2133 
 247   0.0000       3.858692       105.0004 
 248   0.0000       3.883528       105.6762 
 249   0.0000       3.893128       105.9374 
 250   0.0000       3.914706       106.5246 
 251   0.0000       3.940540       107.2275 
 252   0.0000       3.957239       107.6819 
 253   0.0000       3.961959       107.8104 
 254   0.0000       3.993167       108.6596 
 255   0.0000       4.027556       109.5954 
 256   0.0000       4.029882       109.6587 
 257   0.0000       4.068928       110.7212 
 258   0.0000       4.074117       110.8624 
 259   0.0000       4.118766       112.0773 
 260   0.0000       4.126288       112.2820 
 261   0.0000       4.173910       113.5779 
 262   0.0000       4.188145       113.9652 
 263   0.0000       4.211994       114.6142 
 264   0.0000       4.227259       115.0296 
 265   0.0000       4.254919       115.7822 
 266   0.0000       4.281848       116.5150 
 267   0.0000       4.296518       116.9142 
 268   0.0000       4.338953       118.0689 
 269   0.0000       4.371212       118.9467 
 270   0.0000       4.401130       119.7608 
 271   0.0000       4.428628       120.5091 
 272   0.0000       4.478356       121.8623 
 273   0.0000       4.537883       123.4821 
 274   0.0000       4.561208       124.1168 
 275   0.0000       4.585932       124.7896 
 276   0.0000       4.613785       125.5475 
 277   0.0000       4.675446       127.2254 
 278   0.0000       4.703432       127.9869 
 279   0.0000       4.713676       128.2656 
 280   0.0000       4.737516       128.9144 
 281   0.0000       4.751617       129.2981 
 282   0.0000       4.803321       130.7050 
 283   0.0000       4.847816       131.9158 
 284   0.0000       4.890147       133.0677 
 285   0.0000       4.908177       133.5583 
 286   0.0000       4.927747       134.0908 
 287   0.0000       4.981501       135.5535 
 288   0.0000       5.067548       137.8950 
 289   0.0000       5.114104       139.1618 
 290   0.0000       5.136524       139.7719 
 291   0.0000       5.161123       140.4413 
 292   0.0000       5.184059       141.0654 
 293   0.0000       5.250679       142.8783 
 294   0.0000       5.259505       143.1184 
 295   0.0000       5.316598       144.6720 
 296   0.0000       5.333891       145.1425 
 297   0.0000       5.352953       145.6613 
 298   0.0000       5.386835       146.5832 
 299   0.0000       5.426024       147.6496 
 300   0.0000       5.453135       148.3873 
 301   0.0000       5.477415       149.0480 
 302   0.0000       5.521530       150.2485 
 303   0.0000       5.564993       151.4312 
 304   0.0000       5.604032       152.4935 
 305   0.0000       5.612517       152.7243 
 306   0.0000       5.625963       153.0902 
 307   0.0000       5.680284       154.5684 
 308   0.0000       5.731139       155.9522 
 309   0.0000       5.756215       156.6346 
 310   0.0000       5.788511       157.5134 
 311   0.0000       5.839676       158.9056 
 312   0.0000       5.882688       160.0761 
 313   0.0000       5.899994       160.5470 
 314   0.0000       5.943423       161.7288 
 315   0.0000       6.006985       163.4584 
 316   0.0000       6.092545       165.7866 
 317   0.0000       6.152157       167.4087 
 318   0.0000       6.235604       169.6794 
 319   0.0000       6.297159       171.3544 
 320   0.0000       6.301056       171.4605 
 321   0.0000       6.330182       172.2530 
 322   0.0000       6.358712       173.0294 
 323   0.0000       6.673871       181.6053 
 324   0.0000       6.738308       183.3587 
 325   0.0000       7.223102       196.5506 
 326   0.0000       7.272024       197.8818 
 327   0.0000       7.375781       200.7052 
 328   0.0000       7.718503       210.0311 
 329   0.0000       7.819108       212.7687 
 330   0.0000      23.425403       637.4376 
 331   0.0000      23.572838       641.4495 
 332   0.0000      23.612031       642.5160 
 333   0.0000      23.706319       645.0817 
 334   0.0000      23.782953       647.1670 
 335   0.0000      24.503089       666.7629 
 336   0.0000      33.612632       914.6462 
 337   0.0000      33.730524       917.8542 
 338   0.0000      45.696267      1243.4587 

                    ********************************
                    * MULLIKEN POPULATION ANALYSIS *
                    ********************************

-----------------------
MULLIKEN ATOMIC CHARGES
-----------------------
   0 C :   -0.129486
   1 O :   -0.391497
   2 C :   -0.094759
   3 C :    0.208463
   4 N :   -0.394009
   5 C :   -0.066911
   6 C :    0.003925
   7 N :   -0.405399
   8 C :   -0.000291
   9 H :    0.117833
  10 H :    0.093780
  11 H :    0.094579
  12 H :    0.089061
  13 H :    0.108047
  14 H :    0.200028
  15 H :    0.125674
  16 H :    0.123096
  17 H :    0.190131
  18 H :    0.127733
Sum of atomic charges:    0.0000000

--------------------------------
MULLIKEN REDUCED ORBITAL CHARGES
--------------------------------
  0 C s       :     3.212675  s :     3.212675
      pz      :     1.030339  p :     2.788190
      px      :     1.083695
      py      :     0.674156
      dz2     :     0.012395  d :     0.119119
      dxz     :     0.012982
      dyz     :     0.042342
      dx2y2   :     0.022621
      dxy     :     0.028781
      f0      :     0.001291  f :     0.009502
      f+1     :     0.001004
      f-1     :     0.001274
      f+2     :     0.001979
      f-2     :     0.000177
      f+3     :     0.001932
      f-3     :     0.001846
  1 O s       :     3.767857  s :     3.767857
      pz      :     1.860243  p :     4.581231
      px      :     1.435764
      py      :     1.285224
      dz2     :     0.005341  d :     0.040292
      dxz     :     0.003769
      dyz     :     0.004286
      dx2y2   :     0.017778
      dxy     :     0.009119
      f0      :     0.000245  f :     0.002116
      f+1     :     0.000291
      f-1     :     0.000411
      f+2     :     0.000216
      f-2     :     0.000089
      f+3     :     0.000336
      f-3     :     0.000529
  2 C s       :     3.314619  s :     3.314619
      pz      :     1.007517  p :     2.628092
      px      :     0.738549
      py      :     0.882026
      dz2     :     0.013672  d :     0.140850
      dxz     :     0.047304
      dyz     :     0.019047
      dx2y2   :     0.029787
      dxy     :     0.031039
      f0      :     0.001406  f :     0.011198
      f+1     :     0.001791
      f-1     :     0.000871
      f+2     :     0.001174
      f-2     :     0.001284
      f+3     :     0.002527
      f-3     :     0.002146
  3 C s       :     3.192532  s :     3.192532
      pz      :     0.813632  p :     2.412191
      px      :     0.904753
      py      :     0.693806
      dz2     :     0.044653  d :     0.170614
      dxz     :     0.026787
      dyz     :     0.040389
      dx2y2   :     0.023654
      dxy     :     0.035131
      f0      :     0.002090  f :     0.016201
      f+1     :     0.001543
      f-1     :     0.002989
      f+2     :     0.002040
      f-2     :     0.002235
      f+3     :     0.002790
      f-3     :     0.002514
  4 N s       :     3.537780  s :     3.537780
      pz      :     1.513701  p :     3.788750
      px      :     1.162557
      py      :     1.112492
      dz2     :     0.009214  d :     0.064130
      dxz     :     0.008666
      dyz     :     0.024523
      dx2y2   :     0.015186
      dxy     :     0.006541
      f0      :     0.000499  f :     0.003349
      f+1     :     0.000620
      f-1     :     0.000456
      f+2     :     0.000420
      f-2     :     0.000685
      f+3     :     0.000445
      f-3     :     0.000224
  5 C s       :     3.239371  s :     3.239371
      pz      :     0.835621  p :     2.693942
      px      :     0.910008
      py      :     0.948313
      dz2     :     0.037625  d :     0.120408
      dxz     :     0.016033
      dyz     :     0.025191
      dx2y2   :     0.022692
      dxy     :     0.018867
      f0      :     0.001578  f :     0.013189
      f+1     :     0.001097
      f-1     :     0.002981
      f+2     :     0.002140
      f-2     :     0.001391
      f+3     :     0.001696
      f-3     :     0.002307
  6 C s       :     3.190481  s :     3.190481
      pz      :     0.800232  p :     2.668949
      px      :     0.922369
      py      :     0.946348
      dz2     :     0.032568  d :     0.123276
      dxz     :     0.027112
      dyz     :     0.023239
      dx2y2   :     0.012284
      dxy     :     0.028073
      f0      :     0.003137  f :     0.013369
      f+1     :     0.002570
      f-1     :     0.001889
      f+2     :     0.001200
      f-2     :     0.001067
      f+3     :     0.001543
      f-3     :     0.001963
  7 N s       :     3.549719  s :     3.549719
      pz      :     1.197127  p :     3.788020
      px      :     1.193704
      py      :     1.397190
      dz2     :     0.021400  d :     0.064302
      dxz     :     0.007385
      dyz     :     0.009924
      dx2y2   :     0.020502
      dxy     :     0.005091
      f0      :     0.000948  f :     0.003357
      f+1     :     0.000395
      f-1     :     0.000383
      f+2     :     0.000566
      f-2     :     0.000250
      f+3     :     0.000395
      f-3     :     0.000421
  8 C s       :     3.193415  s :     3.193415
      pz      :     0.862347  p :     2.672853
      px      :     0.861865
      py      :     0.948640
      dz2     :     0.010960  d :     0.120929
      dxz     :     0.034286
      dyz     :     0.035035
      dx2y2   :     0.023216
      dxy     :     0.017433
      f0      :     0.001323  f :     0.013094
      f+1     :     0.002101
      f-1     :     0.001643
      f+2     :     0.002998
      f-2     :     0.002011
      f+3     :     0.001676
      f-3     :     0.001343
  9 H s       :     0.861041  s :     0.861041
      pz      :     0.003802  p :     0.021126
      px      :     0.013865
      py      :     0.003460
 10 H s       :     0.885908  s :     0.885908
      pz      :     0.009354  p :     0.020312
      px      :     0.006818
      py      :     0.004140
 11 H s       :     0.885106  s :     0.885106
      pz      :     0.012098  p :     0.020315
      px      :     0.004547
      py      :     0.003670
 12 H s       :     0.889986  s :     0.889986
      pz      :     0.012354  p :     0.020952
      px      :     0.004583
      py      :     0.004015
 13 H s       :     0.870720  s :     0.870720
      pz      :     0.009713  p :     0.021233
      px      :     0.007503
      py      :     0.004016
 14 H s       :     0.764305  s :     0.764305
      pz      :     0.008644  p :     0.035667
      px      :     0.020535
      py      :     0.006489
 15 H s       :     0.852660  s :     0.852660
      pz      :     0.002972  p :     0.021666
      px      :     0.003665
      py      :     0.015029
 16 H s       :     0.855104  s :     0.855104
      pz      :     0.005748  p :     0.021800
      px      :     0.012470
      py      :     0.003582
 17 H s       :     0.774053  s :     0.774053
      pz      :     0.010099  p :     0.035816
      px      :     0.007462
      py      :     0.018255
 18 H s       :     0.850445  s :     0.850445
      pz      :     0.007681  p :     0.021822
      px      :     0.010447
      py      :     0.003693


                     *******************************
                     * LOEWDIN POPULATION ANALYSIS *
                     *******************************

----------------------
LOEWDIN ATOMIC CHARGES
----------------------
   0 C :   -0.316426
   1 O :    0.092755
   2 C :   -0.251838
   3 C :   -0.213972
   4 N :   -0.002490
   5 C :   -0.175821
   6 C :   -0.146065
   7 N :   -0.029018
   8 C :   -0.153666
   9 H :    0.103681
  10 H :    0.094532
  11 H :    0.094452
  12 H :    0.122445
  13 H :    0.128387
  14 H :    0.155048
  15 H :    0.113087
  16 H :    0.117926
  17 H :    0.149711
  18 H :    0.117274

-------------------------------
LOEWDIN REDUCED ORBITAL CHARGES
-------------------------------
  0 C s       :     2.852433  s :     2.852433
      pz      :     1.077749  p :     2.975945
      px      :     1.087303
      py      :     0.810893
      dz2     :     0.054918  d :     0.428027
      dxz     :     0.036637
      dyz     :     0.133026
      dx2y2   :     0.097545
      dxy     :     0.105901
      f0      :     0.007292  f :     0.060021
      f+1     :     0.003109
      f-1     :     0.008047
      f+2     :     0.012222
      f-2     :     0.002831
      f+3     :     0.014458
      f-3     :     0.012064
  1 O s       :     3.275060  s :     3.275060
      pz      :     1.717636  p :     4.518714
      px      :     1.465467
      py      :     1.335612
      dz2     :     0.011115  d :     0.107006
      dxz     :     0.011392
      dyz     :     0.014895
      dx2y2   :     0.039710
      dxy     :     0.029894
      f0      :     0.000694  f :     0.006464
      f+1     :     0.000444
      f-1     :     0.000639
      f+2     :     0.000958
      f-2     :     0.000300
      f+3     :     0.002148
      f-3     :     0.001282
  2 C s       :     2.784013  s :     2.784013
      pz      :     1.025934  p :     2.851792
      px      :     0.844523
      py      :     0.981335
      dz2     :     0.067060  d :     0.542379
      dxz     :     0.151617
      dyz     :     0.060870
      dx2y2   :     0.146096
      dxy     :     0.116735
      f0      :     0.008159  f :     0.073655
      f+1     :     0.008093
      f-1     :     0.005382
      f+2     :     0.008156
      f-2     :     0.010065
      f+3     :     0.019748
      f-3     :     0.014051
  3 C s       :     2.697423  s :     2.697423
      pz      :     0.868061  p :     2.732478
      px      :     0.899878
      py      :     0.964539
      dz2     :     0.158986  d :     0.694398
      dxz     :     0.093677
      dyz     :     0.143961
      dx2y2   :     0.166316
      dxy     :     0.131459
      f0      :     0.012759  f :     0.089673
      f+1     :     0.007287
      f-1     :     0.016689
      f+2     :     0.011640
      f-2     :     0.015513
      f+3     :     0.014349
      f-3     :     0.011436
  4 N s       :     3.081621  s :     3.081621
      pz      :     1.461728  p :     3.722044
      px      :     1.144644
      py      :     1.115672
      dz2     :     0.038640  d :     0.183733
      dxz     :     0.023018
      dyz     :     0.046594
      dx2y2   :     0.050211
      dxy     :     0.025271
      f0      :     0.001958  f :     0.015092
      f+1     :     0.001527
      f-1     :     0.003070
      f+2     :     0.002717
      f-2     :     0.003001
      f+3     :     0.001712
      f-3     :     0.001108
  5 C s       :     2.756139  s :     2.756139
      pz      :     0.893480  p :     2.783558
      px      :     0.943085
      py      :     0.946993
      dz2     :     0.151256  d :     0.559558
      dxz     :     0.070937
      dyz     :     0.101614
      dx2y2   :     0.157725
      dxy     :     0.078027
      f0      :     0.009741  f :     0.076567
      f+1     :     0.005681
      f-1     :     0.017477
      f+2     :     0.012423
      f-2     :     0.010826
      f+3     :     0.008851
      f-3     :     0.011568
  6 C s       :     2.748784  s :     2.748784
      pz      :     0.850494  p :     2.760194
      px      :     0.955339
      py      :     0.954361
      dz2     :     0.122604  d :     0.559560
      dxz     :     0.166560
      dyz     :     0.083373
      dx2y2   :     0.094491
      dxy     :     0.092532
      f0      :     0.016814  f :     0.077527
      f+1     :     0.015631
      f-1     :     0.013709
      f+2     :     0.004659
      f-2     :     0.007146
      f+3     :     0.008273
      f-3     :     0.011295
  7 N s       :     3.085046  s :     3.085046
      pz      :     1.208593  p :     3.741853
      px      :     1.198058
      py      :     1.335201
      dz2     :     0.045041  d :     0.186900
      dxz     :     0.031495
      dyz     :     0.044019
      dx2y2   :     0.042516
      dxy     :     0.023828
      f0      :     0.004036  f :     0.015219
      f+1     :     0.002661
      f-1     :     0.002261
      f+2     :     0.001945
      f-2     :     0.000658
      f+3     :     0.001268
      f-3     :     0.002390
  8 C s       :     2.756265  s :     2.756265
      pz      :     0.917719  p :     2.767167
      px      :     0.894622
      py      :     0.954825
      dz2     :     0.065246  d :     0.554192
      dxz     :     0.194645
      dyz     :     0.107098
      dx2y2   :     0.117150
      dxy     :     0.070052
      f0      :     0.009405  f :     0.076041
      f+1     :     0.012268
      f-1     :     0.011234
      f+2     :     0.012065
      f-2     :     0.012112
      f+3     :     0.009940
      f-3     :     0.009017
  9 H s       :     0.837625  s :     0.837625
      pz      :     0.012662  p :     0.058694
      px      :     0.036067
      py      :     0.009965
 10 H s       :     0.847358  s :     0.847358
      pz      :     0.026026  p :     0.058110
      px      :     0.020496
      py      :     0.011587
 11 H s       :     0.847435  s :     0.847435
      pz      :     0.032567  p :     0.058114
      px      :     0.015017
      py      :     0.010530
 12 H s       :     0.821542  s :     0.821542
      pz      :     0.031613  p :     0.056013
      px      :     0.012494
      py      :     0.011906
 13 H s       :     0.815187  s :     0.815187
      pz      :     0.025975  p :     0.056427
      px      :     0.018731
      py      :     0.011722
 14 H s       :     0.738977  s :     0.738977
      pz      :     0.029824  p :     0.105975
      px      :     0.055519
      py      :     0.020633
 15 H s       :     0.827154  s :     0.827154
      pz      :     0.009621  p :     0.059759
      px      :     0.011753
      py      :     0.038385
 16 H s       :     0.821989  s :     0.821989
      pz      :     0.016347  p :     0.060086
      px      :     0.031838
      py      :     0.011901
 17 H s       :     0.744616  s :     0.744616
      pz      :     0.026234  p :     0.105673
      px      :     0.022265
      py      :     0.057174
 18 H s       :     0.822447  s :     0.822447
      pz      :     0.020659  p :     0.060279
      px      :     0.027491
      py      :     0.012129


                      *****************************
                      * MAYER POPULATION ANALYSIS *
                      *****************************

  NA   - Mulliken gross atomic population
  ZA   - Total nuclear charge
  QA   - Mulliken gross atomic charge
  VA   - Mayer's total valence
  BVA  - Mayer's bonded valence
  FA   - Mayer's free valence

  ATOM       NA         ZA         QA         VA         BVA        FA
  0 C      6.1295     6.0000    -0.1295     3.9114     3.9114    -0.0000
  1 O      8.3915     8.0000    -0.3915     1.8266     1.8266     0.0000
  2 C      6.0948     6.0000    -0.0948     3.9313     3.9313     0.0000
  3 C      5.7915     6.0000     0.2085     3.6062     3.6062     0.0000
  4 N      7.3940     7.0000    -0.3940     2.8889     2.8889     0.0000
  5 C      6.0669     6.0000    -0.0669     3.7942     3.7942     0.0000
  6 C      5.9961     6.0000     0.0039     3.8909     3.8909     0.0000
  7 N      7.4054     7.0000    -0.4054     2.9014     2.9014    -0.0000
  8 C      6.0003     6.0000    -0.0003     3.8063     3.8063     0.0000
  9 H      0.8822     1.0000     0.1178     0.9701     0.9701     0.0000
 10 H      0.9062     1.0000     0.0938     0.9651     0.9651    -0.0000
 11 H      0.9054     1.0000     0.0946     0.9649     0.9649    -0.0000
 12 H      0.9109     1.0000     0.0891     0.9667     0.9667     0.0000
 13 H      0.8920     1.0000     0.1080     0.9670     0.9670     0.0000
 14 H      0.8000     1.0000     0.2000     0.9542     0.9542     0.0000
 15 H      0.8743     1.0000     0.1257     0.9797     0.9797    -0.0000
 16 H      0.8769     1.0000     0.1231     0.9784     0.9784    -0.0000
 17 H      0.8099     1.0000     0.1901     0.9537     0.9537     0.0000
 18 H      0.8723     1.0000     0.1277     0.9772     0.9772     0.0000

  Mayer bond orders larger than 0.1
B(  0-C ,  1-O ) :   0.9347 B(  0-C ,  9-H ) :   0.9867 B(  0-C , 10-H ) :   0.9890 
B(  0-C , 11-H ) :   0.9904 B(  1-O ,  2-C ) :   1.0007 B(  2-C ,  3-C ) :   0.9073 
B(  2-C , 12-H ) :   0.9829 B(  2-C , 13-H ) :   0.9897 B(  3-C ,  4-N ) :   0.9697 
B(  3-C ,  6-C ) :   0.9411 B(  3-C ,  8-C ) :   0.9147 B(  4-N ,  5-C ) :   0.9855 
B(  4-N , 14-H ) :   0.9323 B(  5-C ,  6-C ) :   0.9505 B(  5-C ,  8-C ) :   0.9302 
B(  5-C , 15-H ) :   0.9583 B(  6-C ,  7-N ) :   1.0006 B(  6-C , 16-H ) :   0.9428 
B(  7-N ,  8-C ) :   0.9849 B(  7-N , 17-H ) :   0.9305 B(  8-C , 18-H ) :   0.9517 


-------
TIMINGS
-------

Total SCF time: 0 days 0 hours 2 min 19 sec 

Total time                  ....     139.830 sec
Sum of individual times     ....     144.016 sec  (103.0%)

Fock matrix formation       ....     138.209 sec  ( 98.8%)
Diagonalization             ....       0.768 sec  (  0.5%)
Density matrix formation    ....       0.043 sec  (  0.0%)
Population analysis         ....       0.164 sec  (  0.1%)
Initial guess               ....       2.950 sec  (  2.1%)
Orbital Transformation      ....       0.000 sec  (  0.0%)
Orbital Orthonormalization  ....       0.000 sec  (  0.0%)
DIIS solution               ....       0.231 sec  (  0.2%)
SOSCF solution              ....       0.263 sec  (  0.2%)

   <<< Auxbasis replaced with dsgdb9nsd_119665.AUXC.tmp (Dim=834) >>> 


------------------------------------------------------------------------------
                              ORCA MP2 CALCULATION
------------------------------------------------------------------------------

Freezing NCore=18 chemical core electrons

   <<< Use J-auxbasis for calculation of Separable RI-J derivative contributions dsgdb9nsd_119665.AUXJ.tmp (Dim=861) >>> 


---------------------
RI-MP2 ENERGY+DENSITY
---------------------
Dimension of the basis                    ...  339
Memory devoted to MP2                     ... 2000 MB   
Data format for buffers                   ... DOUBLE
Compression type for matrix containers    ... UNCOMPRESSED
Overall scaling of the MP2 energy         ...   1.000e+00 Eh
Calculating two index integrals           ... done (    0.018 sec)
Cholesky decomposition of V**-1           ... done (    0.119 sec)

-----------------
RI-TRANSFORMATION (AUX index driven)
-----------------

Dimension of the orbital-basis         ... 339
Dimension of the aux-basis             ... 834
Transformation of internal MOs         ...    0-  33
Transformation of internal/external MOs...    0-  33 to   34- 338
Number Format for Storage              ... Double (8 Byte)
Integral mode                          ... Direct

First Phase: integral generation and transformation of MO indices
  Aux angular momentum 0               ... done (    0.808 sec)
  Aux angular momentum 1               ... done (    1.136 sec)
  Aux angular momentum 2               ... done (    1.250 sec)
  Aux angular momentum 3               ... done (    0.952 sec)
  Aux angular momentum 4               ... done (    0.431 sec)
Closing buffer VIJ ( 0.00 GB; CompressionRatio= 1.94)
Closing buffer VIA ( 0.06 GB; CompressionRatio= 1.00)
  Phase 1 completed in     4.676 sec
Second Phase: sorting and transformation of aux index

IJ-Transformation
Memory available                       ... 1986 MB 
Max. # MO pairs treated in a batch     ... 34    
# of internal orbitals                 ... 34
# batches for internal orbitals        ... 1
Closing buffer IJV ( 0.00 GB; CompressionRatio= 1.00)
(ij|v) transformation done in     0.206 sec

IA-Transformation
Memory available                       ... 1986 MB 
Max. # MO pairs treated in a batch     ... 34    
# of internal orbitals                 ... 34
# batches for internal orbitals        ... 1
Closing buffer IAV ( 0.06 GB; CompressionRatio= 1.00)
(ia|v) transformation done in     1.517 sec

  Phase 2 completed in     1.850 sec
RI-Integral transformation completed in     6.526 sec
Opening buffers                              ... done
Frozen core precalculation                   ... done

Starting loop over batches of integrals:

Operator 0  - window                       ... (  9- 33)x( 34-338)
Operator 0  - Memory available             ...  2000 MB
Operator 0  - Memory needed per MO         ...   3.9 MB
Operator 0  - Number of orbitals per batch ... 25
Operator 0  - Number of batches            ... 1

OPERATOR  0   PASS   0:  MOs     9 ...   33
  Reading integrals       ... ok
  Internal MO  11
  Internal MO  14
  Internal MO  17
  Internal MO  20
  Internal MO  23
  Internal MO  26
  Internal MO  29
  Internal MO  32
Time spent in pair loops =    45.444 sec
Deleting buffer (Ka|jb)[aa] ...done

-----------------------------------------------
 RI-MP2 CORRELATION ENERGY:     -1.614113928 Eh
-----------------------------------------------


---------------------
MP2 DENSITY FORMATION
---------------------

Completing the external part of the density      ... done
Storing the unrelaxed density                    ... done

Calculating G(D)                                 ... done
Completing the Lagrangian                        ... done
Solving the Z-vector equations                   ... 

------------------------------------------------------------------------------
                           ORCA CP-SCF CALCULATION
------------------------------------------------------------------------------

Input orbitals are from        ... dsgdb9nsd_119665.gbw
Input Perturbation             ... dsgdb9nsd_119665.pin.tmp
Wavefunction output            ... dsgdb9nsd_119665.pout.tmp
Perturbation mode              ... Real perturbation
Solver                         ... POPLE
Max. number of iterations      ... 128
Convergence tolerance          ... 1.000e-08
Integral handling              ... Direct
Number of perturbations        ... 1
Number of operators            ... 1
Orbital ranges used for CP-SCF:
 Operator 0:  Orbitals   0... 33  to  34...338
Variables per vector in CP-SCF ... 10370
Number of vectors sought       ... 1
     CP-SCF ITERATION   0: 
     CP-SCF ITERATION   1:      0.000806912
     CP-SCF ITERATION   2:      0.000107747
     CP-SCF ITERATION   3:      0.000010021
     CP-SCF ITERATION   4:      0.000000696
     CP-SCF ITERATION   5:      0.000000086
     CP-SCF ITERATION   6:      0.000000008
done
Finalizing the relaxed density                   ... done
Transforming P to the AO basis                   ... done
Storing the relaxed density                      ... done

                *********************************************
                * UNRELAXED MP2 DENSITY POPULATION ANALYSIS *
                *********************************************

------------------------------------------------------------------------------
                           ORCA POPULATION ANALYSIS
------------------------------------------------------------------------------
Input electron density              ... dsgdb9nsd_119665.pmp2ur
BaseName (.gbw .S,...)              ... dsgdb9nsd_119665

                    ********************************
                    * MULLIKEN POPULATION ANALYSIS *
                    ********************************

-----------------------
MULLIKEN ATOMIC CHARGES
-----------------------
   0 C :   -0.145255
   1 O :   -0.373824
   2 C :   -0.109887
   3 C :    0.201586
   4 N :   -0.383227
   5 C :   -0.074532
   6 C :   -0.006058
   7 N :   -0.395093
   8 C :   -0.010399
   9 H :    0.120774
  10 H :    0.096293
  11 H :    0.097096
  12 H :    0.092254
  13 H :    0.110949
  14 H :    0.200812
  15 H :    0.129429
  16 H :    0.126648
  17 H :    0.191045
  18 H :    0.131389
Sum of atomic charges:    0.0000000

--------------------------------
MULLIKEN REDUCED ORBITAL CHARGES
--------------------------------
  0 C s       :     3.210637  s :     3.210637
      pz      :     1.025794  p :     2.781579
      px      :     1.078744
      py      :     0.677041
      dz2     :     0.016641  d :     0.140163
      dxz     :     0.017853
      dyz     :     0.046729
      dx2y2   :     0.025685
      dxy     :     0.033254
      f0      :     0.001811  f :     0.012877
      f+1     :     0.001462
      f-1     :     0.001715
      f+2     :     0.002500
      f-2     :     0.000709
      f+3     :     0.002446
      f-3     :     0.002233
  1 O s       :     3.762140  s :     3.762140
      pz      :     1.843303  p :     4.537482
      px      :     1.421615
      py      :     1.272564
      dz2     :     0.011176  d :     0.069288
      dxz     :     0.009684
      dyz     :     0.010408
      dx2y2   :     0.023084
      dxy     :     0.014936
      f0      :     0.000635  f :     0.004913
      f+1     :     0.000673
      f-1     :     0.000792
      f+2     :     0.000628
      f-2     :     0.000483
      f+3     :     0.000764
      f-3     :     0.000939
  2 C s       :     3.314078  s :     3.314078
      pz      :     1.002558  p :     2.618380
      px      :     0.739363
      py      :     0.876459
      dz2     :     0.018134  d :     0.162550
      dxz     :     0.051387
      dyz     :     0.024955
      dx2y2   :     0.033020
      dxy     :     0.035055
      f0      :     0.001972  f :     0.014879
      f+1     :     0.002246
      f-1     :     0.001355
      f+2     :     0.001792
      f-2     :     0.001823
      f+3     :     0.003128
      f-3     :     0.002563
  3 C s       :     3.187678  s :     3.187678
      pz      :     0.811935  p :     2.399599
      px      :     0.900862
      py      :     0.686802
      dz2     :     0.048819  d :     0.190807
      dxz     :     0.030609
      dyz     :     0.043448
      dx2y2   :     0.029798
      dxy     :     0.038133
      f0      :     0.002742  f :     0.020330
      f+1     :     0.001992
      f-1     :     0.003543
      f+2     :     0.002706
      f-2     :     0.002765
      f+3     :     0.003493
      f-3     :     0.003088
  4 N s       :     3.529201  s :     3.529201
      pz      :     1.497381  p :     3.754700
      px      :     1.154384
      py      :     1.102935
      dz2     :     0.015386  d :     0.092703
      dxz     :     0.014763
      dyz     :     0.029441
      dx2y2   :     0.020663
      dxy     :     0.012449
      f0      :     0.000993  f :     0.006623
      f+1     :     0.001101
      f-1     :     0.000949
      f+2     :     0.000907
      f-2     :     0.001149
      f+3     :     0.000859
      f-3     :     0.000664
  5 C s       :     3.234744  s :     3.234744
      pz      :     0.833179  p :     2.682063
      px      :     0.904974
      py      :     0.943910
      dz2     :     0.041534  d :     0.140729
      dxz     :     0.020692
      dyz     :     0.027974
      dx2y2   :     0.027188
      dxy     :     0.023340
      f0      :     0.002178  f :     0.016996
      f+1     :     0.001557
      f-1     :     0.003484
      f+2     :     0.002695
      f-2     :     0.001916
      f+3     :     0.002336
      f-3     :     0.002830
  6 C s       :     3.187638  s :     3.187638
      pz      :     0.800365  p :     2.657942
      px      :     0.917172
      py      :     0.940405
      dz2     :     0.034388  d :     0.143318
      dxz     :     0.032253
      dyz     :     0.028346
      dx2y2   :     0.017815
      dxy     :     0.030515
      f0      :     0.003561  f :     0.017161
      f+1     :     0.003214
      f-1     :     0.002393
      f+2     :     0.001717
      f-2     :     0.001694
      f+3     :     0.002095
      f-3     :     0.002486
  7 N s       :     3.541436  s :     3.541436
      pz      :     1.186357  p :     3.754139
      px      :     1.182900
      py      :     1.384882
      dz2     :     0.026323  d :     0.092883
      dxz     :     0.013097
      dyz     :     0.016213
      dx2y2   :     0.025743
      dxy     :     0.011507
      f0      :     0.001414  f :     0.006636
      f+1     :     0.000865
      f-1     :     0.000889
      f+2     :     0.001022
      f-2     :     0.000699
      f+3     :     0.000858
      f-3     :     0.000888
  8 C s       :     3.190286  s :     3.190286
      pz      :     0.858471  p :     2.661929
      px      :     0.860448
      py      :     0.943010
      dz2     :     0.015724  d :     0.141293
      dxz     :     0.039239
      dyz     :     0.037185
      dx2y2   :     0.026561
      dxy     :     0.022585
      f0      :     0.001895  f :     0.016890
      f+1     :     0.002750
      f-1     :     0.002123
      f+2     :     0.003474
      f-2     :     0.002617
      f+3     :     0.002138
      f-3     :     0.001893
  9 H s       :     0.855015  s :     0.855015
      pz      :     0.004909  p :     0.024211
      px      :     0.014699
      py      :     0.004603
 10 H s       :     0.880195  s :     0.880195
      pz      :     0.010339  p :     0.023512
      px      :     0.007886
      py      :     0.005287
 11 H s       :     0.879388  s :     0.879388
      pz      :     0.013014  p :     0.023516
      px      :     0.005672
      py      :     0.004829
 12 H s       :     0.883647  s :     0.883647
      pz      :     0.013233  p :     0.024099
      px      :     0.005703
      py      :     0.005163
 13 H s       :     0.864713  s :     0.864713
      pz      :     0.010654  p :     0.024338
      px      :     0.008539
      py      :     0.005145
 14 H s       :     0.761181  s :     0.761181
      pz      :     0.009603  p :     0.038007
      px      :     0.020937
      py      :     0.007467
 15 H s       :     0.845711  s :     0.845711
      pz      :     0.004149  p :     0.024860
      px      :     0.004826
      py      :     0.015884
 16 H s       :     0.848398  s :     0.848398
      pz      :     0.006854  p :     0.024955
      px      :     0.013356
      py      :     0.004744
 17 H s       :     0.770766  s :     0.770766
      pz      :     0.010902  p :     0.038189
      px      :     0.008409
      py      :     0.018878
 18 H s       :     0.843625  s :     0.843625
      pz      :     0.008703  p :     0.024986
      px      :     0.011426
      py      :     0.004856


                     *******************************
                     * LOEWDIN POPULATION ANALYSIS *
                     *******************************

----------------------
LOEWDIN ATOMIC CHARGES
----------------------
   0 C :   -0.326851
   1 O :    0.104926
   2 C :   -0.260430
   3 C :   -0.215513
   4 N :    0.001854
   5 C :   -0.180504
   6 C :   -0.150676
   7 N :   -0.024571
   8 C :   -0.158746
   9 H :    0.105491
  10 H :    0.095961
  11 H :    0.095880
  12 H :    0.123748
  13 H :    0.129642
  14 H :    0.155455
  15 H :    0.115049
  16 H :    0.119891
  17 H :    0.150153
  18 H :    0.119241

-------------------------------
LOEWDIN REDUCED ORBITAL CHARGES
-------------------------------
  0 C s       :     2.851391  s :     2.851391
      pz      :     1.071317  p :     2.961460
      px      :     1.080404
      py      :     0.809738
      dz2     :     0.059751  d :     0.449068
      dxz     :     0.041939
      dyz     :     0.136433
      dx2y2   :     0.101715
      dxy     :     0.109230
      f0      :     0.007853  f :     0.064933
      f+1     :     0.003854
      f-1     :     0.008950
      f+2     :     0.012710
      f-2     :     0.003559
      f+3     :     0.014947
      f-3     :     0.013061
  1 O s       :     3.272184  s :     3.272184
      pz      :     1.702300  p :     4.475943
      px      :     1.451226
      py      :     1.322417
      dz2     :     0.017736  d :     0.137312
      dxz     :     0.017254
      dyz     :     0.020741
      dx2y2   :     0.045985
      dxy     :     0.035597
      f0      :     0.001106  f :     0.009635
      f+1     :     0.000872
      f-1     :     0.001087
      f+2     :     0.001389
      f-2     :     0.000714
      f+3     :     0.002614
      f-3     :     0.001852
  2 C s       :     2.783139  s :     2.783139
      pz      :     1.019177  p :     2.834615
      px      :     0.842156
      py      :     0.973282
      dz2     :     0.072151  d :     0.563259
      dxz     :     0.155186
      dyz     :     0.065925
      dx2y2   :     0.149838
      dxy     :     0.120158
      f0      :     0.008834  f :     0.079417
      f+1     :     0.009079
      f-1     :     0.006221
      f+2     :     0.008964
      f-2     :     0.010677
      f+3     :     0.020385
      f-3     :     0.015256
  3 C s       :     2.696666  s :     2.696666
      pz      :     0.862324  p :     2.710453
      px      :     0.892543
      py      :     0.955586
      dz2     :     0.161674  d :     0.711808
      dxz     :     0.097735
      dyz     :     0.147512
      dx2y2   :     0.169115
      dxy     :     0.135773
      f0      :     0.013499  f :     0.096586
      f+1     :     0.008142
      f-1     :     0.017989
      f+2     :     0.012474
      f-2     :     0.016428
      f+3     :     0.015340
      f-3     :     0.012714
  4 N s       :     3.078291  s :     3.078291
      pz      :     1.445310  p :     3.685138
      px      :     1.135490
      py      :     1.104337
      dz2     :     0.044746  d :     0.215479
      dxz     :     0.029596
      dyz     :     0.053878
      dx2y2   :     0.055956
      dxy     :     0.031305
      f0      :     0.002517  f :     0.019238
      f+1     :     0.002149
      f-1     :     0.003729
      f+2     :     0.003295
      f-2     :     0.003651
      f+3     :     0.002273
      f-3     :     0.001625
  5 C s       :     2.755400  s :     2.755400
      pz      :     0.887130  p :     2.762860
      px      :     0.934871
      py      :     0.940860
      dz2     :     0.153991  d :     0.579682
      dxz     :     0.075313
      dyz     :     0.106607
      dx2y2   :     0.160742
      dxy     :     0.083029
      f0      :     0.010492  f :     0.082561
      f+1     :     0.006427
      f-1     :     0.018592
      f+2     :     0.013227
      f-2     :     0.011595
      f+3     :     0.009645
      f-3     :     0.012582
  6 C s       :     2.748009  s :     2.748009
      pz      :     0.846408  p :     2.739676
      px      :     0.947920
      py      :     0.945347
      dz2     :     0.126884  d :     0.579462
      dxz     :     0.168382
      dyz     :     0.087165
      dx2y2   :     0.098835
      dxy     :     0.098196
      f0      :     0.017967  f :     0.083530
      f+1     :     0.016342
      f-1     :     0.014280
      f+2     :     0.005512
      f-2     :     0.007919
      f+3     :     0.009222
      f-3     :     0.012289
  7 N s       :     3.081705  s :     3.081705
      pz      :     1.196533  p :     3.705025
      px      :     1.185750
      py      :     1.322742
      dz2     :     0.052233  d :     0.218498
      dxz     :     0.037407
      dyz     :     0.049783
      dx2y2   :     0.049367
      dxy     :     0.029707
      f0      :     0.004811  f :     0.019344
      f+1     :     0.003227
      f-1     :     0.002806
      f+2     :     0.002564
      f-2     :     0.001149
      f+3     :     0.001862
      f-3     :     0.002924
  8 C s       :     2.755517  s :     2.755517
      pz      :     0.910768  p :     2.746636
      px      :     0.889974
      py      :     0.945894
      dz2     :     0.070263  d :     0.574539
      dxz     :     0.196293
      dyz     :     0.112318
      dx2y2   :     0.121280
      dxy     :     0.074385
      f0      :     0.010234  f :     0.082054
      f+1     :     0.013008
      f-1     :     0.012323
      f+2     :     0.013333
      f-2     :     0.012835
      f+3     :     0.010718
      f-3     :     0.009602
  9 H s       :     0.830743  s :     0.830743
      pz      :     0.013904  p :     0.063766
      px      :     0.038362
      py      :     0.011499
 10 H s       :     0.840593  s :     0.840593
      pz      :     0.027947  p :     0.063446
      px      :     0.022217
      py      :     0.013282
 11 H s       :     0.840666  s :     0.840666
      pz      :     0.034829  p :     0.063454
      px      :     0.016455
      py      :     0.012170
 12 H s       :     0.814695  s :     0.814695
      pz      :     0.033900  p :     0.061557
      px      :     0.014214
      py      :     0.013443
 13 H s       :     0.808437  s :     0.808437
      pz      :     0.027920  p :     0.061921
      px      :     0.020747
      py      :     0.013253
 14 H s       :     0.733867  s :     0.733867
      pz      :     0.030821  p :     0.110678
      px      :     0.058094
      py      :     0.021763
 15 H s       :     0.819838  s :     0.819838
      pz      :     0.011003  p :     0.065114
      px      :     0.013120
      py      :     0.040991
 16 H s       :     0.814736  s :     0.814736
      pz      :     0.018048  p :     0.065373
      px      :     0.034110
      py      :     0.013214
 17 H s       :     0.739404  s :     0.739404
      pz      :     0.027486  p :     0.110443
      px      :     0.023361
      py      :     0.059596
 18 H s       :     0.815167  s :     0.815167
      pz      :     0.022497  p :     0.065593
      px      :     0.029659
      py      :     0.013437


                      *****************************
                      * MAYER POPULATION ANALYSIS *
                      *****************************

  NA   - Mulliken gross atomic population
  ZA   - Total nuclear charge
  QA   - Mulliken gross atomic charge
  VA   - Mayer's total valence
  BVA  - Mayer's bonded valence
  FA   - Mayer's free valence

  ATOM       NA         ZA         QA         VA         BVA        FA
  0 C      6.1453     6.0000    -0.1453     4.0200     3.7332     0.2868
  1 O      8.3738     8.0000    -0.3738     2.1193     1.6987     0.4205
  2 C      6.1099     6.0000    -0.1099     4.0397     3.7276     0.3121
  3 C      5.7984     6.0000     0.2016     3.6893     3.3245     0.3647
  4 N      7.3832     7.0000    -0.3832     3.1089     2.6887     0.4202
  5 C      6.0745     6.0000    -0.0745     3.8880     3.5272     0.3607
  6 C      6.0061     6.0000    -0.0061     3.9807     3.6204     0.3604
  7 N      7.3951     7.0000    -0.3951     3.1218     2.7021     0.4198
  8 C      6.0104     6.0000    -0.0104     3.8998     3.5369     0.3629
  9 H      0.8792     1.0000     0.1208     0.9786     0.9315     0.0471
 10 H      0.9037     1.0000     0.0963     0.9748     0.9247     0.0501
 11 H      0.9029     1.0000     0.0971     0.9746     0.9246     0.0501
 12 H      0.9077     1.0000     0.0923     0.9761     0.9237     0.0524
 13 H      0.8891     1.0000     0.1109     0.9759     0.9240     0.0519
 14 H      0.7992     1.0000     0.2008     0.9617     0.9061     0.0556
 15 H      0.8706     1.0000     0.1294     0.9873     0.9375     0.0498
 16 H      0.8734     1.0000     0.1266     0.9864     0.9362     0.0502
 17 H      0.8090     1.0000     0.1910     0.9614     0.9052     0.0562
 18 H      0.8686     1.0000     0.1314     0.9849     0.9349     0.0500

  Mayer bond orders larger than 0.1
B(  0-C ,  1-O ) :   0.8745 B(  0-C ,  9-H ) :   0.9491 B(  0-C , 10-H ) :   0.9499 
B(  0-C , 11-H ) :   0.9512 B(  1-O ,  2-C ) :   0.9372 B(  2-C ,  3-C ) :   0.8554 
B(  2-C , 12-H ) :   0.9428 B(  2-C , 13-H ) :   0.9495 B(  3-C ,  4-N ) :   0.8963 
B(  3-C ,  6-C ) :   0.8666 B(  3-C ,  8-C ) :   0.8399 B(  4-N ,  5-C ) :   0.9115 
B(  4-N , 14-H ) :   0.8872 B(  5-C ,  6-C ) :   0.8759 B(  5-C ,  8-C ) :   0.8561 
B(  5-C , 15-H ) :   0.9205 B(  6-C ,  7-N ) :   0.9268 B(  6-C , 16-H ) :   0.9050 
B(  7-N ,  8-C ) :   0.9115 B(  7-N , 17-H ) :   0.8850 B(  8-C , 18-H ) :   0.9137 



                *******************************************
                * RELAXED MP2 DENSITY POPULATION ANALYSIS *
                *******************************************

[...]
      f+1     :     0.002120
      f-1     :     0.001229
      f+2     :     0.001810
      f-2     :     0.001694
      f+3     :     0.003095
      f-3     :     0.002354
  3 C s       :     3.214956  s :     3.214956
      pz      :     0.831182  p :     2.446936
      px      :     0.909234
      py      :     0.706520
      dz2     :     0.047331  d :     0.186580
      dxz     :     0.027799
      dyz     :     0.043972
      dx2y2   :     0.030588
      dxy     :     0.036890
      f0      :     0.002727  f :     0.019470
      f+1     :     0.001775
      f-1     :     0.003291
      f+2     :     0.002766
      f-2     :     0.002580
      f+3     :     0.003520
      f-3     :     0.002811
  4 N s       :     3.533751  s :     3.533751
      pz      :     1.477959  p :     3.709236
      px      :     1.139046
      py      :     1.092231
      dz2     :     0.016116  d :     0.087010
      dxz     :     0.014668
      dyz     :     0.025964
      dx2y2   :     0.018647
      dxy     :     0.011616
      f0      :     0.001001  f :     0.006423
      f+1     :     0.001075
      f-1     :     0.000913
      f+2     :     0.000878
      f-2     :     0.001097
      f+3     :     0.000804
      f-3     :     0.000656
  5 C s       :     3.249798  s :     3.249798
      pz      :     0.843480  p :     2.692712
      px      :     0.907002
      py      :     0.942230
      dz2     :     0.039345  d :     0.134017
      dxz     :     0.019854
      dyz     :     0.025339
      dx2y2   :     0.026365
      dxy     :     0.023113
      f0      :     0.002126  f :     0.016336
      f+1     :     0.001421
      f-1     :     0.003272
      f+2     :     0.002664
      f-2     :     0.001823
      f+3     :     0.002307
      f-3     :     0.002723
  6 C s       :     3.207208  s :     3.207208
      pz      :     0.806001  p :     2.667842
      px      :     0.919925
      py      :     0.941916
      dz2     :     0.029285  d :     0.137005
      dxz     :     0.033843
      dyz     :     0.029358
      dx2y2   :     0.018159
      dxy     :     0.026361
      f0      :     0.003306  f :     0.016563
      f+1     :     0.003102
      f-1     :     0.002335
      f+2     :     0.001743
      f-2     :     0.001684
      f+3     :     0.001994
      f-3     :     0.002398
  7 N s       :     3.560807  s :     3.560807
      pz      :     1.170456  p :     3.701631
      px      :     1.171062
      py      :     1.360114
      dz2     :     0.022699  d :     0.087401
      dxz     :     0.013243
      dyz     :     0.016871
      dx2y2   :     0.022217
      dxy     :     0.012370
      f0      :     0.001313  f :     0.006443
      f+1     :     0.000867
      f-1     :     0.000896
      f+2     :     0.000985
      f-2     :     0.000710
      f+3     :     0.000807
      f-3     :     0.000866
  8 C s       :     3.201570  s :     3.201570
      pz      :     0.864777  p :     2.671735
      px      :     0.860812
      py      :     0.946146
      dz2     :     0.016543  d :     0.134746
      dxz     :     0.039134
      dyz     :     0.031134
      dx2y2   :     0.023911
      dxy     :     0.024024
      f0      :     0.001895  f :     0.016289
      f+1     :     0.002751
      f-1     :     0.001944
      f+2     :     0.003168
      f-2     :     0.002603
      f+3     :     0.002074
      f-3     :     0.001854
  9 H s       :     0.837585  s :     0.837585
      pz      :     0.005148  p :     0.023082
      px      :     0.013308
      py      :     0.004626
 10 H s       :     0.863663  s :     0.863663
      pz      :     0.009643  p :     0.022497
      px      :     0.007575
      py      :     0.005279
 11 H s       :     0.862957  s :     0.862957
      pz      :     0.011880  p :     0.022499
      px      :     0.005729
      py      :     0.004889
 12 H s       :     0.868499  s :     0.868499
      pz      :     0.012057  p :     0.023018
      px      :     0.005678
      py      :     0.005283
 13 H s       :     0.851888  s :     0.851888
      pz      :     0.009894  p :     0.023255
      px      :     0.008090
      py      :     0.005271
 14 H s       :     0.754591  s :     0.754591
      pz      :     0.009946  p :     0.037173
      px      :     0.019479
      py      :     0.007748
 15 H s       :     0.846048  s :     0.846048
      pz      :     0.004427  p :     0.024058
      px      :     0.005092
      py      :     0.014539
 16 H s       :     0.847393  s :     0.847393
      pz      :     0.006638  p :     0.024045
      px      :     0.012385
      py      :     0.005022
 17 H s       :     0.763284  s :     0.763284
      pz      :     0.010924  p :     0.037436
      px      :     0.008700
      py      :     0.017812
 18 H s       :     0.841744  s :     0.841744
      pz      :     0.008404  p :     0.024125
      px      :     0.010579
      py      :     0.005141


                     *******************************
                     * LOEWDIN POPULATION ANALYSIS *
                     *******************************

----------------------
LOEWDIN ATOMIC CHARGES
----------------------
   0 C :   -0.360138
   1 O :    0.135446
   2 C :   -0.290941
   3 C :   -0.232022
   4 N :    0.016428
   5 C :   -0.198341
   6 C :   -0.165768
   7 N :   -0.010822
   8 C :   -0.176639
   9 H :    0.113598
  10 H :    0.102347
  11 H :    0.102212
  12 H :    0.130965
  13 H :    0.136692
  14 H :    0.162365
  15 H :    0.122693
  16 H :    0.127496
  17 H :    0.157695
  18 H :    0.126734

-------------------------------
LOEWDIN REDUCED ORBITAL CHARGES
-------------------------------
  0 C s       :     2.858915  s :     2.858915
      pz      :     1.088697  p :     2.999133
      px      :     1.095191
      py      :     0.815245
      dz2     :     0.056202  d :     0.439013
      dxz     :     0.039237
      dyz     :     0.137892
      dx2y2   :     0.097424
      dxy     :     0.108259
      f0      :     0.007515  f :     0.063076
      f+1     :     0.003723
      f-1     :     0.008879
      f+2     :     0.012142
      f-2     :     0.003494
      f+3     :     0.014404
      f-3     :     0.012920
  1 O s       :     3.276590  s :     3.276590
      pz      :     1.682914  p :     4.439023
      px      :     1.439558
      py      :     1.316550
      dz2     :     0.017739  d :     0.139089
      dxz     :     0.017741
      dyz     :     0.021754
      dx2y2   :     0.045374
      dxy     :     0.036480
      f0      :     0.001121  f :     0.009852
      f+1     :     0.000887
      f-1     :     0.001105
      f+2     :     0.001426
      f-2     :     0.000728
      f+3     :     0.002671
      f-3     :     0.001913
  2 C s       :     2.791391  s :     2.791391
      pz      :     1.034289  p :     2.864406
      px      :     0.851395
      py      :     0.978722
      dz2     :     0.068944  d :     0.557600
      dxz     :     0.154735
      dyz     :     0.066256
      dx2y2   :     0.148667
      dxy     :     0.118997
      f0      :     0.008489  f :     0.077544
      f+1     :     0.008781
      f-1     :     0.006088
      f+2     :     0.008728
      f-2     :     0.010392
      f+3     :     0.019985
      f-3     :     0.015082
  3 C s       :     2.706392  s :     2.706392
      pz      :     0.869464  p :     2.721920
      px      :     0.900192
      py      :     0.952264
      dz2     :     0.160723  d :     0.708446
      dxz     :     0.095398
      dyz     :     0.149338
      dx2y2   :     0.168066
      dxy     :     0.134921
      f0      :     0.013242  f :     0.095264
      f+1     :     0.007833
      f-1     :     0.017865
      f+2     :     0.012400
      f-2     :     0.016409
      f+3     :     0.015199
      f-3     :     0.012317
  4 N s       :     3.086170  s :     3.086170
      pz      :     1.423274  p :     3.665710
      px      :     1.138326
      py      :     1.104110
      dz2     :     0.045244  d :     0.212412
      dxz     :     0.029877
      dyz     :     0.052242
      dx2y2   :     0.053862
      dxy     :     0.031187
      f0      :     0.002497  f :     0.019279
      f+1     :     0.002191
      f-1     :     0.003749
      f+2     :     0.003267
      f-2     :     0.003704
      f+3     :     0.002255
      f-3     :     0.001616
  5 C s       :     2.766318  s :     2.766318
      pz      :     0.892841  p :     2.778216
      px      :     0.940410
      py      :     0.944965
      dz2     :     0.152537  d :     0.572186
      dxz     :     0.075759
      dyz     :     0.104571
      dx2y2   :     0.156784
      dxy     :     0.082536
      f0      :     0.010201  f :     0.081621
      f+1     :     0.006184
      f-1     :     0.018600
      f+2     :     0.013160
      f-2     :     0.011726
      f+3     :     0.009339
      f-3     :     0.012409
  6 C s       :     2.758321  s :     2.758321
      pz      :     0.854221  p :     2.753699
      px      :     0.950536
      py      :     0.948942
      dz2     :     0.122075  d :     0.571210
      dxz     :     0.167345
      dyz     :     0.087638
      dx2y2   :     0.098298
      dxy     :     0.095854
      f0      :     0.017838  f :     0.082537
      f+1     :     0.015930
      f-1     :     0.014208
      f+2     :     0.005333
      f-2     :     0.007784
      f+3     :     0.009162
      f-3     :     0.012283
  7 N s       :     3.089557  s :     3.089557
      pz      :     1.189341  p :     3.686484
      px      :     1.181853
      py      :     1.315291
      dz2     :     0.050452  d :     0.215394
      dxz     :     0.038197
      dyz     :     0.049487
      dx2y2   :     0.046932
      dxy     :     0.030325
      f0      :     0.004863  f :     0.019387
      f+1     :     0.003262
      f-1     :     0.002773
      f+2     :     0.002586
      f-2     :     0.001130
      f+3     :     0.001869
      f-3     :     0.002905
  8 C s       :     2.766780  s :     2.766780
      pz      :     0.913976  p :     2.761454
      px      :     0.896482
      py      :     0.950996
      dz2     :     0.072525  d :     0.567300
      dxz     :     0.193258
      dyz     :     0.109116
      dx2y2   :     0.117664
      dxy     :     0.074736
      f0      :     0.010253  f :     0.081106
      f+1     :     0.012732
      f-1     :     0.012475
      f+2     :     0.012869
      f-2     :     0.012692
      f+3     :     0.010740
      f-3     :     0.009345
  9 H s       :     0.822000  s :     0.822000
      pz      :     0.014433  p :     0.064402
      px      :     0.037995
      py      :     0.011974
 10 H s       :     0.833203  s :     0.833203
      pz      :     0.028013  p :     0.064450
      px      :     0.022516
      py      :     0.013922
 11 H s       :     0.833323  s :     0.833323
      pz      :     0.034746  p :     0.064465
      px      :     0.016892
      py      :     0.012826
 12 H s       :     0.806107  s :     0.806107
      pz      :     0.033979  p :     0.062928
      px      :     0.014912
      py      :     0.014037
 13 H s       :     0.800101  s :     0.800101
      pz      :     0.028038  p :     0.063207
      px      :     0.021317
      py      :     0.013853
 14 H s       :     0.726009  s :     0.726009
      pz      :     0.031219  p :     0.111626
      px      :     0.058280
      py      :     0.022128
 15 H s       :     0.810894  s :     0.810894
      pz      :     0.011638  p :     0.066413
      px      :     0.013728
      py      :     0.041047
 16 H s       :     0.805896  s :     0.805896
      pz      :     0.018479  p :     0.066608
      px      :     0.034370
      py      :     0.013759
 17 H s       :     0.730787  s :     0.730787
      pz      :     0.027536  p :     0.111519
      px      :     0.023644
      py      :     0.060339
 18 H s       :     0.806443  s :     0.806443
      pz      :     0.023043  p :     0.066823
      px      :     0.029794
      py      :     0.013986


                      *****************************
                      * MAYER POPULATION ANALYSIS *
                      *****************************

  NA   - Mulliken gross atomic population
  ZA   - Total nuclear charge
  QA   - Mulliken gross atomic charge
  VA   - Mayer's total valence
  BVA  - Mayer's bonded valence
  FA   - Mayer's free valence

  ATOM       NA         ZA         QA         VA         BVA        FA
  0 C      6.2260     6.0000    -0.2260     4.0337     3.7495     0.2843
  1 O      8.3032     8.0000    -0.3032     2.2404     1.8292     0.4113
  2 C      6.1655     6.0000    -0.1655     4.0804     3.7732     0.3072
  3 C      5.8679     6.0000     0.1321     3.7624     3.4041     0.3583
  4 N      7.3364     7.0000    -0.3364     3.1443     2.7331     0.4112
  5 C      6.0929     6.0000    -0.0929     3.9006     3.5462     0.3544
  6 C      6.0286     6.0000    -0.0286     3.9591     3.6041     0.3550
  7 N      7.3563     7.0000    -0.3563     3.1353     2.7242     0.4111
  8 C      6.0243     6.0000    -0.0243     3.8914     3.5348     0.3566
  9 H      0.8607     1.0000     0.1393     0.9720     0.9257     0.0463
 10 H      0.8862     1.0000     0.1138     0.9677     0.9186     0.0491
 11 H      0.8855     1.0000     0.1145     0.9676     0.9186     0.0490
 12 H      0.8915     1.0000     0.1085     0.9699     0.9192     0.0508
 13 H      0.8751     1.0000     0.1249     0.9721     0.9219     0.0502
 14 H      0.7918     1.0000     0.2082     0.9536     0.8988     0.0548
 15 H      0.8701     1.0000     0.1299     0.9831     0.9340     0.0490
 16 H      0.8714     1.0000     0.1286     0.9824     0.9333     0.0491
 17 H      0.8007     1.0000     0.1993     0.9515     0.8961     0.0554
 18 H      0.8659     1.0000     0.1341     0.9797     0.9306     0.0490

  Mayer bond orders larger than 0.1
B(  0-C ,  1-O ) :   0.9188 B(  0-C ,  9-H ) :   0.9394 B(  0-C , 10-H ) :   0.9371 
B(  0-C , 11-H ) :   0.9384 B(  1-O ,  2-C ) :   1.0026 B(  2-C ,  3-C ) :   0.8705 
B(  2-C , 12-H ) :   0.9216 B(  2-C , 13-H ) :   0.9265 B(  3-C ,  4-N ) :   0.9210 
B(  3-C ,  6-C ) :   0.8478 B(  3-C ,  8-C ) :   0.8278 B(  4-N ,  5-C ) :   0.9118 
B(  4-N , 14-H ) :   0.8748 B(  5-C ,  6-C ) :   0.8646 B(  5-C ,  8-C ) :   0.8533 
B(  5-C , 15-H ) :   0.9134 B(  6-C ,  7-N ) :   0.9197 B(  6-C , 16-H ) :   0.8907 
B(  7-N ,  8-C ) :   0.8996 B(  7-N , 17-H ) :   0.8695 B(  8-C , 18-H ) :   0.9042 



-------
TIMINGS
-------

Total time                :  793.374 sec
Integral trafo            :    6.535 sec (  0.8%)
FC preparation            :    3.700 sec (  0.5%)
I/O of integrals          :    0.052 sec (  0.0%)
K(i,j) Operators          :   11.970 sec (  1.5%)
T(i,j) pair energies      :    0.900 sec (  0.1%)
V-calculation             :    0.018 sec (  0.0%)
V**(-1/2)                 :    0.119 sec (  0.0%)
Gamma(ia|P)               :   11.937 sec (  1.5%)
Gamma-Trafo               :    1.497 sec (  0.2%)
D(virtual)                :    4.443 sec (  0.6%)
D(internal)               :    3.554 sec (  0.4%)
W(virtual)                :    0.000 sec (  0.0%)
W(internal)               :    0.000 sec (  0.0%)
L(virtual)                :   10.475 sec (  1.3%)
L(internal)               :    0.284 sec (  0.0%)
G(D)                      :  102.688 sec ( 12.9%)
G(Z)                      :    0.000 sec (  0.0%)
Z-Vector Solution         :  634.442 sec ( 80.0%)
3-Index Derivative        :    0.000 sec (  0.0%)
2-Index Derivative        :    0.000 sec (  0.0%)
Separable Gradient (RIJ)  :    0.000 sec (  0.0%)
Separable Gradient (X)    :    0.000 sec (  0.0%)


---------------------------------------
MP2 TOTAL ENERGY:     -418.369476043 Eh
---------------------------------------

-------------------------   --------------------
FINAL SINGLE POINT ENERGY      -418.369476043196
-------------------------   --------------------


                            ***************************************
                            *     ORCA property calculations      *
                            ***************************************

                                    ---------------------
                                    Active property flags
                                    ---------------------
   (+) Dipole Moment


------------------------------------------------------------------------------
                       ORCA ELECTRIC PROPERTIES CALCULATION
------------------------------------------------------------------------------

Dipole Moment Calculation                       ... on
Quadrupole Moment Calculation                   ... off
Polarizability Calculation                      ... off
GBWName                                         ... dsgdb9nsd_119665.gbw
Electron density file                           ... dsgdb9nsd_119665.scfp.tmp

-------------
DIPOLE MOMENT
-------------
                                X             Y             Z
Electronic contribution:     -0.29486      -5.11254      -0.12176
Nuclear contribution   :      0.34708       5.06116      -0.07877
                        -----------------------------------------
Total Dipole Moment    :      0.05222      -0.05138      -0.20054
                        -----------------------------------------
Magnitude (a.u.)       :      0.21350
Magnitude (Debye)      :      0.54268


                         *** MP2 UNRELAXED DENSITY ***

------------------------------------------------------------------------------
                       ORCA ELECTRIC PROPERTIES CALCULATION
------------------------------------------------------------------------------

Dipole Moment Calculation                       ... on
Quadrupole Moment Calculation                   ... off
Polarizability Calculation                      ... off
GBWName                                         ... dsgdb9nsd_119665.gbw
Electron density file                           ... dsgdb9nsd_119665.pmp2ur

-------------
DIPOLE MOMENT
-------------
                                X             Y             Z
Electronic contribution:     -0.28257      -5.11544      -0.12152
Nuclear contribution   :      0.34708       5.06116      -0.07877
                        -----------------------------------------
Total Dipole Moment    :      0.06451      -0.05428      -0.20029
                        -----------------------------------------
Magnitude (a.u.)       :      0.21731
Magnitude (Debye)      :      0.55236


                           *** MP2 RELAXED DENSITY ***

------------------------------------------------------------------------------
                       ORCA ELECTRIC PROPERTIES CALCULATION
------------------------------------------------------------------------------

Dipole Moment Calculation                       ... on
Quadrupole Moment Calculation                   ... off
Polarizability Calculation                      ... off
GBWName                                         ... dsgdb9nsd_119665.gbw
Electron density file                           ... dsgdb9nsd_119665.pmp2re

-------------
DIPOLE MOMENT
-------------
                                X             Y             Z
Electronic contribution:     -0.25796      -5.12072      -0.12854
Nuclear contribution   :      0.34708       5.06116      -0.07877
                        -----------------------------------------
Total Dipole Moment    :      0.08912      -0.05956      -0.20731
                        -----------------------------------------
Magnitude (a.u.)       :      0.23338
Magnitude (Debye)      :      0.59321


Timings for individual modules:

Sum of individual times         ...      936.910 sec (=  15.615 min)
GTO integral calculation        ...        0.538 sec (=   0.009 min)   0.1 %
SCF iterations                  ...      142.852 sec (=   2.381 min)  15.2 %
MP2 module                      ...      793.520 sec (=  13.225 min)  84.7 %
                             ****ORCA TERMINATED NORMALLY****
TOTAL RUN TIME: 0 days 0 hours 15 minutes 37 seconds 401 msec
