
                                 *****************
                                 * O   R   C   A *
                                 *****************

           --- An Ab Initio, DFT and Semiempirical electronic structure package ---

                  #######################################################
                  #                        -***-                        #
                  #  Department of molecular theory and spectroscopy    #
                  #              Directorship: Frank Neese              #
                  # Max Planck Institute for Chemical Energy Conversion #
                  #                  D-45470 Muelheim/Ruhr              #
                  #                       Germany                       #
                  #                                                     #
                  #                  All rights reserved                #
                  #                        -***-                        #
                  #######################################################


                         Program Version 3.0.3 - RELEASE   -


 With contributions from (in alphabetic order):
   Ute Becker             : Parallelization
   Dmytro Bykov           : SCF Hessian
   Dmitry Ganyushin       : Spin-Orbit,Spin-Spin,Magnetic field MRCI
   Andreas Hansen         : Spin unrestricted coupled pair/coupled cluster methods
   Dimitrios Liakos       : Extrapolation schemes; parallel MDCI
   Robert Izsak           : Overlap fitted RIJCOSX, COSX-SCS-MP3
   Christian Kollmar      : KDIIS, OOCD, Brueckner-CCSD(T), CCSD density
   Simone Kossmann        : Meta GGA functionals, TD-DFT gradient, OOMP2, MP2 Hessian
   Taras Petrenko         : DFT Hessian,TD-DFT gradient, ASA and ECA modules, normal mode analysis, Resonance Raman, ABS, FL, XAS/XES, NRVS
   Christoph Reimann      : Effective Core Potentials
   Michael Roemelt        : Restricted open shell CIS
   Christoph Riplinger    : Improved optimizer, TS searches, QM/MM, DLPNO-CCSD
   Barbara Sandhoefer     : DKH picture change effects
   Igor Schapiro          : Molecular dynamics
   Kantharuban Sivalingam : CASSCF convergence, NEVPT2
   Boris Wezisla          : Elementary symmetry handling
   Frank Wennmohs         : Technical directorship


 We gratefully acknowledge several colleagues who have allowed us to
 interface, adapt or use parts of their codes:
   Stefan Grimme, W. Hujo, H. Kruse, T. Risthaus : VdW corrections, initial TS optimization,
                                                   DFT functionals, gCP
   Ed Valeev                                     : LibInt (2-el integral package), F12 methods
   Garnet Chan, S. Sharma, R. Olivares           : DMRG
   Ulf Ekstrom                                   : XCFun DFT Library
   Mihaly Kallay                                 : mrcc  (arbitrary order and MRCC methods)
   Andreas Klamt, Michael Diedenhofen            : otool_cosmo (COSMO solvation model)
   Frank Weinhold                                : gennbo (NPA and NBO analysis)
   Christopher J. Cramer and Donald G. Truhlar   : smd solvation model


 Your calculation uses the libint2 library for the computation of 2-el integrals
 For citations please refer to: http://libint.valeyev.net

 This ORCA versions uses:
   CBLAS   interface :  Fast vector & matrix operations
   LAPACKE interface :  Fast linear algebra routines
   SCALAPACK package :  Parallel linear algebra routines


Your calculation utilizes the basis: Ahlrichs-TZV
Cite in your paper:
H - Kr: A. Schaefer, H. Horn and R. Ahlrichs, J. Chem. Phys. 97, 2571 (1992).

The def2-TZV basis will be loaded
Cite in your paper:
 	F. Weigend, R. Ahlrichs, Phys. Chem. Chem. Phys. 2005, 7, 3297.

================================================================================
                                        WARNINGS
                       Please study these warnings very carefully!
================================================================================
Now building the actual basis set


INFO   : the flag for use of LIBINT has been found!

================================================================================
                                       INPUT FILE
================================================================================
NAME = dsgdb9nsd_003911.inp
|  1> ! RI-MP2 RIJK def2-TZVP def2-TZVP/C def2-TZVP/JK TIGHTSCF
|  2> % maxcore 2000
|  3> % mp2 density relaxed end
|  4> *xyz 0 1
|  5>  O        0.0544659326    -0.0493632537    -0.0007430815 
|  6>  C        0.0079513383     1.1630880514     0.0088334878 
|  7>  C        1.1948292816     2.0074177665     0.0028665999 
|  8>  C        1.3781955414     3.3847172883     0.0114302932 
|  9>  C        2.7719900589     3.5557073523    -0.0016868003 
| 10>  N        3.4134662796     2.3808059264    -0.0174842125 
| 11>  N        2.4439259916     1.4680142850    -0.0144040792 
| 12>  H       -0.9553032622     1.7125136517     0.0232897457 
| 13>  H        0.6093535479     4.1402849125     0.0252196838 
| 14>  H        3.3406077954     4.4732846103    -0.0005379416 
| 15>  H        2.6576054548     0.4828256392    -0.0242383653 
| 16> *
| 17> 
| 18>                          ****END OF INPUT****
================================================================================

                       ****************************
                       * Single Point Calculation *
                       ****************************

---------------------------------
CARTESIAN COORDINATES (ANGSTROEM)
---------------------------------
  O      0.054466   -0.049363   -0.000743
  C      0.007951    1.163088    0.008833
  C      1.194829    2.007418    0.002867
  C      1.378196    3.384717    0.011430
  C      2.771990    3.555707   -0.001687
  N      3.413466    2.380806   -0.017484
  N      2.443926    1.468014   -0.014404
  H     -0.955303    1.712514    0.023290
  H      0.609354    4.140285    0.025220
  H      3.340608    4.473285   -0.000538
  H      2.657605    0.482826   -0.024238

----------------------------
CARTESIAN COORDINATES (A.U.)
----------------------------
  NO LB      ZA    FRAG    MASS        X           Y           Z
   0 O     8.0000    0    15.999          0.102925696242613         -0.093283030572275         -0.001404220530183
   1 C     6.0000    0    12.011          0.015025851785159          2.197917886782124          0.016692872749335
   2 C     6.0000    0    12.011          2.257900119013875          3.793469815052879          0.005417088746526
   3 C     6.0000    0    12.011          2.604412132237328          6.396188715635581          0.021600123778422
   4 C     6.0000    0    12.011          5.238302057273240          6.719313108217248         -0.003187590609616
   5 N     7.0000    0    14.007          6.450516435819067          4.499071178912676         -0.033040373292283
   6 N     7.0000    0    14.007          4.618350815695929          2.774144959334221         -0.027219764899312
   7 H     1.0000    0     1.008         -1.805261540399566          3.236181802314406          0.044011241101670
   8 H     1.0000    0     1.008          1.151511324264265          7.824004601031113          0.047658295566090
   9 H     1.0000    0     1.008          6.312833854148438          8.453282832551652         -0.001016562300043
  10 H     1.0000    0     1.008          5.022146481587234          0.912408228523473         -0.045803872350940

--------------------------------
INTERNAL COORDINATES (ANGSTROEM)
--------------------------------
 O      0   0   0   0.000000     0.000     0.000
 C      1   0   0   1.213381     0.000     0.000
 C      2   1   0   1.456574   123.227     0.000
 C      3   2   1   1.389478   133.008   180.007
 C      4   3   2   1.404305   104.573   179.994
 N      5   4   3   1.338706   111.644     0.000
 N      6   5   4   1.331618   104.637     0.000
 H      2   1   3   1.109025   121.900   180.021
 H      4   3   2   1.078049   126.919     0.000
 H      5   4   3   1.079479   128.778   180.004
 H      7   6   5   1.008143   121.032   180.001

---------------------------
INTERNAL COORDINATES (A.U.)
---------------------------
 O      0   0   0   0.000000     0.000     0.000
 C      1   0   0   2.292958     0.000     0.000
 C      2   1   0   2.752526   123.227     0.000
 C      3   2   1   2.625734   133.008   180.007
 C      4   3   2   2.653752   104.573   179.994
 N      5   4   3   2.529788   111.644     0.000
 N      6   5   4   2.516393   104.637     0.000
 H      2   1   3   2.095754   121.900   180.021
 H      4   3   2   2.037218   126.919     0.000
 H      5   4   3   2.039920   128.778   180.004
 H      7   6   5   1.905114   121.032   180.001

---------------------
BASIS SET INFORMATION
---------------------
There are 4 groups of distinct atoms

 Group   1 Type O   : 11s6p2d1f contracted to 5s3p2d1f pattern {62111/411/11/1}
 Group   2 Type C   : 11s6p2d1f contracted to 5s3p2d1f pattern {62111/411/11/1}
 Group   3 Type N   : 11s6p2d1f contracted to 5s3p2d1f pattern {62111/411/11/1}
 Group   4 Type H   : 5s1p contracted to 3s1p pattern {311/1}

Atom   0O    basis set group =>   1
Atom   1C    basis set group =>   2
Atom   2C    basis set group =>   2
Atom   3C    basis set group =>   2
Atom   4C    basis set group =>   2
Atom   5N    basis set group =>   3
Atom   6N    basis set group =>   3
Atom   7H    basis set group =>   4
Atom   8H    basis set group =>   4
Atom   9H    basis set group =>   4
Atom  10H    basis set group =>   4
-------------------------------
AUXILIARY BASIS SET INFORMATION
-------------------------------
There are 4 groups of distinct atoms

 Group   1 Type O   : 14s10p6d2f1g contracted to 10s8p4d2f1g pattern {5111111111/31111111/3111/11/1}
 Group   2 Type C   : 14s10p6d2f1g contracted to 10s8p5d1f1g pattern {5111111111/31111111/21111/2/1}
 Group   3 Type N   : 14s10p6d2f1g contracted to 10s8p4d2f1g pattern {5111111111/31111111/3111/11/1}
 Group   4 Type H   : 4s2p2d contracted to 2s2p2d pattern {31/11/11}

Atom   0O    basis set group =>   1
Atom   1C    basis set group =>   2
Atom   2C    basis set group =>   2
Atom   3C    basis set group =>   2
Atom   4C    basis set group =>   2
Atom   5N    basis set group =>   3
Atom   6N    basis set group =>   3
Atom   7H    basis set group =>   4
Atom   8H    basis set group =>   4
Atom   9H    basis set group =>   4
Atom  10H    basis set group =>   4
------------------------------------------------------------------------------
                           ORCA GTO INTEGRAL CALCULATION
                           -- RI-GTO INTEGRALS CHOSEN --
------------------------------------------------------------------------------

                         BASIS SET STATISTICS AND STARTUP INFO

Gaussian basis set:
 # of primitive gaussian shells          ...  164
 # of primitive gaussian functions       ...  354
 # of contracted shells                  ...   93
 # of contracted basis functions         ...  241
 Highest angular momentum                ...    3
 Maximum contraction depth               ...    6
Auxiliary gaussian basis set:
 # of primitive gaussian shells          ...  263
 # of primitive gaussian functions       ...  759
 # of contracted shells                  ...  199
 # of contracted aux-basis functions     ...  603
 Highest angular momentum                ...    4
 Maximum contraction depth               ...    5
Ratio of auxiliary to basis functions    ...  2.50
Integral package used                  ... LIBINT
 One Electron integrals                  ... done
 Ordering auxiliary basis shells         ... done
 Integral threshhold             Thresh  ...  2.500e-11
 Primitive cut-off               TCut    ...  2.500e-12
 Pre-screening matrix                    ... done
 Shell pair data                         ... 
 Ordering of the shell pairs             ... done (   0.001 sec) 4095 of 4371 pairs
 Determination of significant pairs      ... done (   0.000 sec)
 Creation of shell pair data             ... done (   0.001 sec)
 Storage of shell pair data              ... done (   0.001 sec)
 Shell pair data done in (   0.003 sec)
 Computing two index integrals           ... done
 Cholesky decomposition of the V-matrix  ... done


Timings:
 Total evaluation time                   ...   0.240 sec (  0.004 min)
 One electron matrix time                ...   0.037 sec (  0.001 min) = 15.3%
 Schwartz matrix evaluation time         ...   0.148 sec (  0.002 min) = 61.6%
 Two index repulsion integral time       ...   0.011 sec (  0.000 min) =  4.8%
 Cholesky decomposition of V             ...   0.014 sec (  0.000 min) =  5.7%
 Three index repulsion integral time     ...   0.000 sec (  0.000 min) =  0.0%

-------------------------------------------------------------------------------
                                 ORCA SCF
-------------------------------------------------------------------------------

------------
SCF SETTINGS
------------
Hamiltonian:
 Ab initio Hamiltonian  Method          .... Hartree-Fock(GTOs)
 RI-approximation to the Coulomb term is turned on
   Number of auxiliary basis functions  .... 603
   RI-JK (J+K treated both via RI)      .... on


General Settings:
 Integral files         IntName         .... dsgdb9nsd_003911
 Hartree-Fock type      HFTyp           .... RHF
 Total Charge           Charge          ....    0
 Multiplicity           Mult            ....    1
 Number of Electrons    NEL             ....   50
 Basis Dimension        Dim             ....  241
 Nuclear Repulsion      ENuc            ....    273.9653312219 Eh

Convergence Acceleration:
 DIIS                   CNVDIIS         .... on
   Start iteration      DIISMaxIt       ....    12
   Startup error        DIISStart       ....  0.200000
   # of expansion vecs  DIISMaxEq       ....     5
   Bias factor          DIISBfac        ....   1.050
   Max. coefficient     DIISMaxC        ....  10.000
 Newton-Raphson         CNVNR           .... off
 SOSCF                  CNVSOSCF        .... on
   Start iteration      SOSCFMaxIt      ....   150
   Startup grad/error   SOSCFStart      ....  0.003300
 Level Shifting         CNVShift        .... on
   Level shift para.    LevelShift      ....    0.2500
   Turn off err/grad.   ShiftErr        ....    0.0010
 Zerner damping         CNVZerner       .... off
 Static damping         CNVDamp         .... on
   Fraction old density DampFac         ....    0.7000
   Max. Damping (<1)    DampMax         ....    0.9800
   Min. Damping (>=0)   DampMin         ....    0.0000
   Turn off err/grad.   DampErr         ....    0.1000
 Fernandez-Rico         CNVRico         .... off

SCF Procedure:
 Maximum # iterations   MaxIter         ....   125
 SCF integral mode      SCFMode         .... Direct
   Integral package                     .... LIBINT
 Reset frequeny         DirectResetFreq ....    20
 Integral Threshold     Thresh          ....  2.500e-11 Eh
 Primitive CutOff       TCut            ....  2.500e-12 Eh

Convergence Tolerance:
 Convergence Check Mode ConvCheckMode   .... Total+1el-Energy
 Energy Change          TolE            ....  1.000e-08 Eh
 1-El. energy change                    ....  1.000e-05 Eh
 Orbital Gradient       TolG            ....  1.000e-05
 Orbital Rotation angle TolX            ....  1.000e-05
 DIIS Error             TolErr          ....  5.000e-07


Diagonalization of the overlap matrix:
Smallest eigenvalue                        ... 1.005e-04
Time for diagonalization                   ...    0.015 sec
Threshold for overlap eigenvalues          ... 1.000e-08
Number of eigenvalues below threshold      ... 0
Time for construction of square roots      ...    0.007 sec
Total time needed                          ...    0.022 sec

-------------------
DFT GRID GENERATION
-------------------

General Integration Accuracy     IntAcc      ...  4.340
Radial Grid Type                 RadialGrid  ... Gauss-Chebyshev
Angular Grid (max. acc.)         AngularGrid ... Lebedev-110
Angular grid pruning method      GridPruning ... 3 (G Style)
Weight generation scheme         WeightScheme... Becke
Basis function cutoff            BFCut       ...    1.0000e-11
Integration weight cutoff        WCut        ...    1.0000e-14
Grids for H and He will be reduced by one unit

# of grid points (after initial pruning)     ...  14920 (   0.0 sec)
# of grid points (after weights+screening)   ...  14092 (   0.0 sec)
nearest neighbour list constructed           ...    0.0 sec
Grid point re-assignment to atoms done       ...    0.0 sec
Grid point division into batches done        ...    0.0 sec
Reduced shell lists constructed in    0.6 sec

Total number of grid points                  ...    14092
Total number of batches                      ...      225
Average number of points per batch           ...       62
Average number of grid points per atom       ...     1281
Average number of shells per batch           ...    67.02 (72.06%)
Average number of basis functions per batch  ...   180.56 (74.92%)
Average number of large shells per batch     ...    55.19 (82.36%)
Average number of large basis fcns per batch ...   147.67 (81.79%)
Average number of aux-shells per batch       ...    67.02 (33.68%)
Average number of aux functions per batch    ...   180.56 (  inf%)
Maximum spatial batch extension              ...  19.69, 18.95, 22.46 au
Average spatial batch extension              ...   4.03,  3.74,  5.11 au

Time for grid setup =    0.663 sec

------------------------------
INITIAL GUESS: MODEL POTENTIAL
------------------------------
Loading Hartree-Fock densities                     ... done
Calculating cut-offs                               ... done
Setting up the integral package                    ... done
Initializing the effective Hamiltonian             ... done
Starting the Coulomb interaction                   ... done (   0.2 sec)
Reading the grid                                   ... done
Mapping shells                                     ... done
Starting the XC term evaluation                    ... done (   0.3 sec)
Transforming the Hamiltonian                       ... done (   0.0 sec)
Diagonalizing the Hamiltonian                      ... done (   0.0 sec)
Back transforming the eigenvectors                 ... done (   0.0 sec)
Now organizing SCF variables                       ... done
                      ------------------
                      INITIAL GUESS DONE (   1.4 sec)
                      ------------------
--------------
SCF ITERATIONS
--------------
ITER       Energy         Delta-E        Max-DP      RMS-DP      [F,P]     Damp
  0   -337.3974520327   0.000000000000 0.03924920  0.00096164  0.2866596 0.7000
  1   -337.2883314759   0.109120556802 0.05600994  0.00107142  0.2748349 0.7000
                               ***Turning on DIIS***
  2   -337.3126334662  -0.024301990327 0.03869492  0.00078083  0.1871823 0.7000
  3   -337.9746172177  -0.661983751475 0.01299493  0.00038996  0.1333199 0.7000
  4   -337.6216581955   0.352959022188 0.04629870  0.00103710  0.0858724 0.0000
  5   -337.7211575717  -0.099499376208 0.01262393  0.00029215  0.0515064 0.0000
  6   -337.6338289145   0.087328657200 0.00830848  0.00013610  0.0071546 0.0000
  7   -337.6259742989   0.007854615610 0.00254410  0.00006539  0.0047668 0.0000
  8   -337.6332191146  -0.007244815681 0.00189851  0.00004638  0.0045202 0.0000
                      *** Initiating the SOSCF procedure ***
                           *** Shutting down DIIS ***
                      *** Re-Reading the Fockian *** 
                      *** Removing any level shift *** 
ITER      Energy       Delta-E        Grad      Rot      Max-DP    RMS-DP
  9   -337.64859437  -0.0153752512  0.000701  0.000701  0.000788  0.000016
 10   -337.65170601  -0.0031116418  0.000366  0.000597  0.000491  0.000010
 11   -337.65170768  -0.0000016730  0.000137  0.000640  0.000815  0.000015
 12   -337.65170844  -0.0000007580  0.000056  0.000071  0.000151  0.000003
 13   -337.65170851  -0.0000000706  0.000038  0.000058  0.000038  0.000001
 14   -337.65170852  -0.0000000107  0.000006  0.000018  0.000013  0.000000
                 **** Energy Check signals convergence ****
              ***Rediagonalizing the Fockian in SOSCF/NRSCF***

               *****************************************************
               *                     SUCCESS                       *
               *           SCF CONVERGED AFTER  15 CYCLES          *
               *****************************************************


----------------
TOTAL SCF ENERGY
----------------

Total Energy       :         -337.65170852 Eh           -9187.97010 eV

Components:
Nuclear Repulsion  :          273.96533122 Eh            7454.97567 eV
Electronic Energy  :         -611.61703974 Eh          -16642.94576 eV

One Electron Energy:        -1001.75173389 Eh          -27259.05050 eV
Two Electron Energy:          390.13469414 Eh           10616.10474 eV

Virial components:
Potential Energy   :         -674.78751107 Eh          -18361.90168 eV
Kinetic Energy     :          337.13580255 Eh            9173.93158 eV
Virial Ratio       :            2.00153026


---------------
SCF CONVERGENCE
---------------

  Last Energy change         ...   -1.7795e-09  Tolerance :   1.0000e-08
  Last MAX-Density change    ...    1.0317e-05  Tolerance :   1.0000e-07
  Last RMS-Density change    ...    2.8240e-07  Tolerance :   5.0000e-09
  Last Orbital Gradient      ...    3.3095e-06  Tolerance :   1.0000e-05
  Last Orbital Rotation      ...    1.4178e-05  Tolerance :   1.0000e-05

             **** THE GBW FILE WAS UPDATED (dsgdb9nsd_003911.gbw) ****
             **** DENSITY FILE WAS UPDATED (dsgdb9nsd_003911.scfp.tmp) ****
             **** ENERGY FILE WAS UPDATED (dsgdb9nsd_003911.en.tmp) ****
----------------
ORBITAL ENERGIES
----------------

  NO   OCC          E(Eh)            E(eV) 
   0   2.0000     -20.572734      -559.8125 
   1   2.0000     -15.658795      -426.0975 
   2   2.0000     -15.616292      -424.9409 
   3   2.0000     -11.356404      -309.0235 
   4   2.0000     -11.292548      -307.2858 
   5   2.0000     -11.270207      -306.6779 
   6   2.0000     -11.254328      -306.2458 
   7   2.0000      -1.415292       -38.5121 
   8   2.0000      -1.394445       -37.9448 
   9   2.0000      -1.120201       -30.4822 
  10   2.0000      -1.085883       -29.5484 
  11   2.0000      -0.916225       -24.9317 
  12   2.0000      -0.831073       -22.6146 
  13   2.0000      -0.825627       -22.4665 
  14   2.0000      -0.731540       -19.9062 
  15   2.0000      -0.674126       -18.3439 
  16   2.0000      -0.636558       -17.3216 
  17   2.0000      -0.636347       -17.3159 
  18   2.0000      -0.623666       -16.9708 
  19   2.0000      -0.592894       -16.1335 
  20   2.0000      -0.548753       -14.9323 
  21   2.0000      -0.485350       -13.2070 
  22   2.0000      -0.452513       -12.3135 
  23   2.0000      -0.383318       -10.4306 
  24   2.0000      -0.366057        -9.9609 
  25   0.0000       0.063913         1.7392 
  26   0.0000       0.150770         4.1027 
  27   0.0000       0.155058         4.2193 
  28   0.0000       0.177431         4.8281 
  29   0.0000       0.177903         4.8410 
  30   0.0000       0.194539         5.2937 
  31   0.0000       0.217158         5.9092 
  32   0.0000       0.217573         5.9205 
  33   0.0000       0.237623         6.4661 
  34   0.0000       0.272996         7.4286 
  35   0.0000       0.290444         7.9034 
  36   0.0000       0.325803         8.8656 
  37   0.0000       0.359083         9.7712 
  38   0.0000       0.363138         9.8815 
  39   0.0000       0.364193         9.9102 
  40   0.0000       0.383224        10.4280 
  41   0.0000       0.405518        11.0347 
  42   0.0000       0.434926        11.8349 
  43   0.0000       0.436221        11.8702 
  44   0.0000       0.437177        11.8962 
  45   0.0000       0.460087        12.5196 
  46   0.0000       0.485265        13.2047 
  47   0.0000       0.525261        14.2931 
  48   0.0000       0.540296        14.7022 
  49   0.0000       0.548344        14.9212 
  50   0.0000       0.566375        15.4118 
  51   0.0000       0.569056        15.4848 
  52   0.0000       0.576409        15.6849 
  53   0.0000       0.593200        16.1418 
  54   0.0000       0.609286        16.5795 
  55   0.0000       0.622486        16.9387 
  56   0.0000       0.637641        17.3511 
  57   0.0000       0.650188        17.6925 
  58   0.0000       0.685483        18.6529 
  59   0.0000       0.688971        18.7479 
  60   0.0000       0.703412        19.1408 
  61   0.0000       0.712975        19.4010 
  62   0.0000       0.743165        20.2225 
  63   0.0000       0.757249        20.6058 
  64   0.0000       0.788521        21.4568 
  65   0.0000       0.828888        22.5552 
  66   0.0000       0.835308        22.7299 
  67   0.0000       0.856875        23.3167 
  68   0.0000       0.866434        23.5769 
  69   0.0000       0.888112        24.1668 
  70   0.0000       0.935654        25.4604 
  71   0.0000       0.966808        26.3082 
  72   0.0000       0.973199        26.4821 
  73   0.0000       1.018062        27.7029 
  74   0.0000       1.055159        28.7123 
  75   0.0000       1.084756        29.5177 
  76   0.0000       1.112218        30.2650 
  77   0.0000       1.135995        30.9120 
  78   0.0000       1.176830        32.0232 
  79   0.0000       1.177626        32.0448 
  80   0.0000       1.253981        34.1226 
  81   0.0000       1.268063        34.5058 
  82   0.0000       1.294301        35.2197 
  83   0.0000       1.314715        35.7752 
  84   0.0000       1.342213        36.5235 
  85   0.0000       1.400408        38.1070 
  86   0.0000       1.413604        38.4661 
  87   0.0000       1.463163        39.8147 
  88   0.0000       1.482265        40.3345 
  89   0.0000       1.518776        41.3280 
  90   0.0000       1.536642        41.8141 
  91   0.0000       1.543558        42.0023 
  92   0.0000       1.591724        43.3130 
  93   0.0000       1.645400        44.7736 
  94   0.0000       1.673451        45.5369 
  95   0.0000       1.689378        45.9703 
  96   0.0000       1.716941        46.7203 
  97   0.0000       1.722131        46.8616 
  98   0.0000       1.743355        47.4391 
  99   0.0000       1.743974        47.4559 
 100   0.0000       1.786641        48.6170 
 101   0.0000       1.799996        48.9804 
 102   0.0000       1.835443        49.9449 
 103   0.0000       1.842442        50.1354 
 104   0.0000       1.884657        51.2841 
 105   0.0000       1.928614        52.4802 
 106   0.0000       1.929473        52.5036 
 107   0.0000       2.008497        54.6540 
 108   0.0000       2.034894        55.3723 
 109   0.0000       2.038698        55.4758 
 110   0.0000       2.062054        56.1113 
 111   0.0000       2.095521        57.0220 
 112   0.0000       2.145199        58.3738 
 113   0.0000       2.196584        59.7721 
 114   0.0000       2.208046        60.0840 
 115   0.0000       2.269856        61.7659 
 116   0.0000       2.273686        61.8701 
 117   0.0000       2.323100        63.2148 
 118   0.0000       2.328486        63.3613 
 119   0.0000       2.340558        63.6898 
 120   0.0000       2.384452        64.8842 
 121   0.0000       2.406973        65.4971 
 122   0.0000       2.429520        66.1106 
 123   0.0000       2.450154        66.6721 
 124   0.0000       2.497251        67.9536 
 125   0.0000       2.514798        68.4311 
 126   0.0000       2.562787        69.7370 
 127   0.0000       2.578516        70.1650 
 128   0.0000       2.655332        72.2552 
 129   0.0000       2.666399        72.5564 
 130   0.0000       2.725560        74.1663 
 131   0.0000       2.750550        74.8463 
 132   0.0000       2.832045        77.0639 
 133   0.0000       2.836554        77.1866 
 134   0.0000       2.873965        78.2046 
 135   0.0000       2.901694        78.9591 
 136   0.0000       2.922767        79.5325 
 137   0.0000       2.945326        80.1464 
 138   0.0000       2.974495        80.9401 
 139   0.0000       2.992751        81.4369 
 140   0.0000       2.995734        81.5181 
 141   0.0000       3.041515        82.7638 
 142   0.0000       3.068920        83.5096 
 143   0.0000       3.074237        83.6542 
 144   0.0000       3.108947        84.5987 
 145   0.0000       3.152720        85.7899 
 146   0.0000       3.186382        86.7059 
 147   0.0000       3.191468        86.8443 
 148   0.0000       3.227770        87.8321 
 149   0.0000       3.233841        87.9973 
 150   0.0000       3.285767        89.4103 
 151   0.0000       3.312708        90.1434 
 152   0.0000       3.340280        90.8936 
 153   0.0000       3.363106        91.5148 
 154   0.0000       3.413804        92.8943 
 155   0.0000       3.419582        93.0516 
 156   0.0000       3.434328        93.4528 
 157   0.0000       3.444996        93.7431 
 158   0.0000       3.454744        94.0084 
 159   0.0000       3.493310        95.0578 
 160   0.0000       3.503983        95.3482 
 161   0.0000       3.504063        95.3504 
 162   0.0000       3.566801        97.0576 
 163   0.0000       3.573653        97.2440 
 164   0.0000       3.614118        98.3452 
 165   0.0000       3.640474        99.0623 
 166   0.0000       3.654620        99.4473 
 167   0.0000       3.689719       100.4023 
 168   0.0000       3.705730       100.8381 
 169   0.0000       3.718160       101.1763 
 170   0.0000       3.771211       102.6199 
 171   0.0000       3.802856       103.4810 
 172   0.0000       3.821436       103.9866 
 173   0.0000       3.867721       105.2460 
 174   0.0000       3.936050       107.1054 
 175   0.0000       3.939405       107.1967 
 176   0.0000       3.986201       108.4701 
 177   0.0000       4.026619       109.5699 
 178   0.0000       4.039531       109.9212 
 179   0.0000       4.106709       111.7492 
 180   0.0000       4.112362       111.9030 
 181   0.0000       4.170079       113.4736 
 182   0.0000       4.210756       114.5805 
 183   0.0000       4.277312       116.3916 
 184   0.0000       4.292474       116.8041 
 185   0.0000       4.330445       117.8374 
 186   0.0000       4.440352       120.8281 
 187   0.0000       4.515970       122.8858 
 188   0.0000       4.524892       123.1286 
 189   0.0000       4.543079       123.6235 
 190   0.0000       4.616795       125.6294 
 191   0.0000       4.626021       125.8804 
 192   0.0000       4.738834       128.9502 
 193   0.0000       4.781786       130.1190 
 194   0.0000       4.794135       130.4550 
 195   0.0000       4.870712       132.5388 
 196   0.0000       4.906484       133.5122 
 197   0.0000       5.029490       136.8594 
 198   0.0000       5.058102       137.6379 
 199   0.0000       5.082324       138.2971 
 200   0.0000       5.117714       139.2601 
 201   0.0000       5.168879       140.6523 
 202   0.0000       5.220644       142.0609 
 203   0.0000       5.253145       142.9453 
 204   0.0000       5.290054       143.9497 
 205   0.0000       5.333391       145.1290 
 206   0.0000       5.359013       145.8262 
 207   0.0000       5.450961       148.3282 
 208   0.0000       5.451287       148.3370 
 209   0.0000       5.583158       151.9255 
 210   0.0000       5.600387       152.3943 
 211   0.0000       5.604747       152.5129 
 212   0.0000       5.627128       153.1219 
 213   0.0000       5.643842       153.5767 
 214   0.0000       5.690810       154.8548 
 215   0.0000       5.772560       157.0794 
 216   0.0000       5.827938       158.5863 
 217   0.0000       5.890434       160.2868 
 218   0.0000       5.939082       161.6106 
 219   0.0000       5.995309       163.1407 
 220   0.0000       6.064702       165.0289 
 221   0.0000       6.138169       167.0281 
 222   0.0000       6.239568       169.7873 
 223   0.0000       6.501707       176.9204 
 224   0.0000       6.545140       178.1023 
 225   0.0000       6.551442       178.2738 
 226   0.0000       6.822415       185.6473 
 227   0.0000       6.853040       186.4807 
 228   0.0000       6.984324       190.0531 
 229   0.0000       7.011853       190.8022 
 230   0.0000       7.289426       198.3554 
 231   0.0000       7.399885       201.3611 
 232   0.0000       7.509478       204.3433 
 233   0.0000       7.575831       206.1488 
 234   0.0000      23.549988       640.8277 
 235   0.0000      23.830368       648.4573 
 236   0.0000      23.952333       651.7761 
 237   0.0000      24.281014       660.7200 
 238   0.0000      33.433314       909.7667 
 239   0.0000      33.581156       913.7897 
 240   0.0000      45.413856      1235.7738 

                    ********************************
                    * MULLIKEN POPULATION ANALYSIS *
                    ********************************

-----------------------
MULLIKEN ATOMIC CHARGES
-----------------------
   0 O :   -0.432054
   1 C :    0.201295
   2 C :    0.060205
   3 C :   -0.135656
   4 C :   -0.027950
   5 N :   -0.258079
   6 N :   -0.102181
   7 H :    0.108354
   8 H :    0.154766
   9 H :    0.145287
  10 H :    0.286013
Sum of atomic charges:    0.0000000

--------------------------------
MULLIKEN REDUCED ORBITAL CHARGES
--------------------------------
  0 O s       :     3.849800  s :     3.849800
      pz      :     1.347988  p :     4.543888
      px      :     1.844880
      py      :     1.351020
      dz2     :     0.003215  d :     0.036244
      dxz     :     0.000019
      dyz     :     0.013823
      dx2y2   :     0.011685
      dxy     :     0.007503
      f0      :     0.000187  f :     0.002122
      f+1     :     0.000018
      f-1     :     0.000227
      f+2     :     0.000526
      f-2     :     0.000005
      f+3     :     0.000537
      f-3     :     0.000622
  1 C s       :     3.238346  s :     3.238346
      pz      :     0.662583  p :     2.360814
      px      :     0.910387
      py      :     0.787844
      dz2     :     0.005958  d :     0.183167
      dxz     :     0.008275
      dyz     :     0.051809
      dx2y2   :     0.025565
      dxy     :     0.091560
      f0      :     0.002221  f :     0.016378
      f+1     :     0.000785
      f-1     :     0.001187
      f+2     :     0.002651
      f-2     :     0.000494
      f+3     :     0.005696
      f-3     :     0.003344
  2 C s       :     3.119580  s :     3.119580
      pz      :     1.001901  p :     2.657406
      px      :     0.753107
      py      :     0.902398
      dz2     :     0.002498  d :     0.147269
      dxz     :     0.020957
      dyz     :     0.033452
      dx2y2   :     0.050470
      dxy     :     0.039892
      f0      :     0.002555  f :     0.015539
      f+1     :     0.001474
      f-1     :     0.001229
      f+2     :     0.001669
      f-2     :     0.001455
      f+3     :     0.004072
      f-3     :     0.003085
  3 C s       :     3.087770  s :     3.087770
      pz      :     1.043306  p :     2.940848
      px      :     0.976449
      py      :     0.921093
      dz2     :     0.008574  d :     0.097490
      dxz     :     0.015297
      dyz     :     0.016664
      dx2y2   :     0.025492
      dxy     :     0.031462
      f0      :     0.001727  f :     0.009548
      f+1     :     0.001090
      f-1     :     0.001025
      f+2     :     0.001558
      f-2     :     0.000042
      f+3     :     0.002043
      f-3     :     0.002062
  4 C s       :     3.155255  s :     3.155255
      pz      :     0.978588  p :     2.754345
      px      :     0.882047
      py      :     0.893710
      dz2     :     0.001710  d :     0.105954
      dxz     :     0.024955
      dyz     :     0.016579
      dx2y2   :     0.030586
      dxy     :     0.032125
      f0      :     0.002192  f :     0.012396
      f+1     :     0.001068
      f-1     :     0.001116
      f+2     :     0.001241
      f-2     :     0.001018
      f+3     :     0.002736
      f-3     :     0.003023
  5 N s       :     3.670311  s :     3.670311
      pz      :     1.141636  p :     3.491532
      px      :     1.370033
      py      :     0.979863
      dz2     :     0.008297  d :     0.089784
      dxz     :     0.013975
      dyz     :     0.021467
      dx2y2   :     0.013205
      dxy     :     0.032840
      f0      :     0.000931  f :     0.006452
      f+1     :     0.000596
      f-1     :     0.000675
      f+2     :     0.000189
      f-2     :     0.001393
      f+3     :     0.001253
      f-3     :     0.001415
  6 N s       :     3.354086  s :     3.354086
      pz      :     1.510006  p :     3.639834
      px      :     1.061688
      py      :     1.068140
      dz2     :     0.004709  d :     0.100961
      dxz     :     0.025085
      dyz     :     0.007007
      dx2y2   :     0.036053
      dxy     :     0.028107
      f0      :     0.001069  f :     0.007300
      f+1     :     0.000942
      f-1     :     0.001041
      f+2     :     0.000130
      f-2     :     0.000949
      f+3     :     0.001583
      f-3     :     0.001586
  7 H s       :     0.870813  s :     0.870813
      pz      :     0.001902  p :     0.020832
      px      :     0.013734
      py      :     0.005196
  8 H s       :     0.821471  s :     0.821471
      pz      :     0.004410  p :     0.023763
      px      :     0.009795
      py      :     0.009558
  9 H s       :     0.831356  s :     0.831356
      pz      :     0.004190  p :     0.023358
      px      :     0.006614
      py      :     0.012554
 10 H s       :     0.676265  s :     0.676265
      pz      :     0.009917  p :     0.037722
      px      :     0.005276
      py      :     0.022530


                     *******************************
                     * LOEWDIN POPULATION ANALYSIS *
                     *******************************

----------------------
LOEWDIN ATOMIC CHARGES
----------------------
   0 O :    0.048694
   1 C :   -0.208693
   2 C :   -0.233446
   3 C :   -0.150643
   4 C :   -0.233220
   5 N :    0.029854
   6 N :    0.154763
   7 H :    0.125178
   8 H :    0.139379
   9 H :    0.130427
  10 H :    0.197706

-------------------------------
LOEWDIN REDUCED ORBITAL CHARGES
-------------------------------
  0 O s       :     3.413594  s :     3.413594
      pz      :     1.268631  p :     4.462119
      px      :     1.686204
      py      :     1.507284
      dz2     :     0.007769  d :     0.069864
      dxz     :     0.000036
      dyz     :     0.013695
      dx2y2   :     0.025571
      dxy     :     0.022794
      f0      :     0.000321  f :     0.005729
      f+1     :     0.000141
      f-1     :     0.000846
      f+2     :     0.000654
      f-2     :     0.000009
      f+3     :     0.002057
      f-3     :     0.001701
  1 C s       :     2.808533  s :     2.808533
      pz      :     0.652703  p :     2.635964
      px      :     1.002893
      py      :     0.980368
      dz2     :     0.040878  d :     0.666268
      dxz     :     0.028440
      dyz     :     0.124979
      dx2y2   :     0.158304
      dxy     :     0.313667
      f0      :     0.007489  f :     0.097928
      f+1     :     0.003544
      f-1     :     0.009403
      f+2     :     0.015418
      f-2     :     0.003607
      f+3     :     0.041505
      f-3     :     0.016962
  2 C s       :     2.716373  s :     2.716373
      pz      :     0.901157  p :     2.844914
      px      :     0.926200
      py      :     1.017557
      dz2     :     0.043905  d :     0.590438
      dxz     :     0.077812
      dyz     :     0.101061
      dx2y2   :     0.168889
      dxy     :     0.198771
      f0      :     0.005845  f :     0.081721
      f+1     :     0.006683
      f-1     :     0.004651
      f+2     :     0.011695
      f-2     :     0.009830
      f+3     :     0.027284
      f-3     :     0.015732
  3 C s       :     2.763616  s :     2.763616
      pz      :     0.935782  p :     2.965858
      px      :     1.025193
      py      :     1.004882
      dz2     :     0.026897  d :     0.372845
      dxz     :     0.050321
      dyz     :     0.048128
      dx2y2   :     0.108230
      dxy     :     0.139269
      f0      :     0.003088  f :     0.048324
      f+1     :     0.003721
      f-1     :     0.003791
      f+2     :     0.011190
      f-2     :     0.000454
      f+3     :     0.012944
      f-3     :     0.013137
  4 C s       :     2.783139  s :     2.783139
      pz      :     0.914447  p :     2.898884
      px      :     1.020865
      py      :     0.963572
      dz2     :     0.035054  d :     0.483594
      dxz     :     0.079776
      dyz     :     0.040625
      dx2y2   :     0.136278
      dxy     :     0.191860
      f0      :     0.004241  f :     0.067603
      f+1     :     0.004551
      f-1     :     0.005536
      f+2     :     0.008458
      f-2     :     0.006435
      f+3     :     0.013379
      f-3     :     0.025005
  5 N s       :     3.121586  s :     3.121586
      pz      :     1.067826  p :     3.548751
      px      :     1.382676
      py      :     1.098249
      dz2     :     0.022604  d :     0.270284
      dxz     :     0.021682
      dyz     :     0.066945
      dx2y2   :     0.062017
      dxy     :     0.097035
      f0      :     0.001851  f :     0.029525
      f+1     :     0.001509
      f-1     :     0.002420
      f+2     :     0.000501
      f-2     :     0.007072
      f+3     :     0.006712
      f-3     :     0.009460
  6 N s       :     2.913289  s :     2.913289
      pz      :     1.350132  p :     3.585313
      px      :     1.133393
      py      :     1.101787
      dz2     :     0.018997  d :     0.320452
      dxz     :     0.069569
      dyz     :     0.017733
      dx2y2   :     0.125206
      dxy     :     0.088948
      f0      :     0.001554  f :     0.026182
      f+1     :     0.002285
      f-1     :     0.002157
      f+2     :     0.000711
      f-2     :     0.005349
      f+3     :     0.007985
      f-3     :     0.006141
  7 H s       :     0.821285  s :     0.821285
      pz      :     0.006080  p :     0.053537
      px      :     0.033304
      py      :     0.014152
  8 H s       :     0.798501  s :     0.798501
      pz      :     0.014141  p :     0.062120
      px      :     0.024335
      py      :     0.023643
  9 H s       :     0.808955  s :     0.808955
      pz      :     0.013045  p :     0.060618
      px      :     0.017499
      py      :     0.030073
 10 H s       :     0.694264  s :     0.694264
      pz      :     0.029780  p :     0.108030
      px      :     0.015626
      py      :     0.062624


                      *****************************
                      * MAYER POPULATION ANALYSIS *
                      *****************************

  NA   - Mulliken gross atomic population
  ZA   - Total nuclear charge
  QA   - Mulliken gross atomic charge
  VA   - Mayer's total valence
  BVA  - Mayer's bonded valence
  FA   - Mayer's free valence

  ATOM       NA         ZA         QA         VA         BVA        FA
  0 O      8.4321     8.0000    -0.4321     1.9943     1.9943     0.0000
  1 C      5.7987     6.0000     0.2013     3.9924     3.9924     0.0000
  2 C      5.9398     6.0000     0.0602     3.6855     3.6855    -0.0000
  3 C      6.1357     6.0000    -0.1357     3.8226     3.8226    -0.0000
  4 C      6.0279     6.0000    -0.0279     4.0182     4.0182     0.0000
  5 N      7.2581     7.0000    -0.2581     2.8766     2.8766    -0.0000
  6 N      7.1022     7.0000    -0.1022     3.3143     3.3143    -0.0000
  7 H      0.8916     1.0000     0.1084     0.9620     0.9620    -0.0000
  8 H      0.8452     1.0000     0.1548     0.9654     0.9654     0.0000
  9 H      0.8547     1.0000     0.1453     0.9812     0.9812     0.0000
 10 H      0.7140     1.0000     0.2860     0.9285     0.9285    -0.0000

  Mayer bond orders larger than 0.1
B(  0-O ,  1-C ) :   1.9726 B(  1-C ,  2-C ) :   0.9230 B(  1-C ,  7-H ) :   1.0448 
B(  2-C ,  3-C ) :   1.5125 B(  2-C ,  5-N ) :   0.1292 B(  2-C ,  6-N ) :   1.2455 
B(  2-C ,  7-H ) :  -0.1001 B(  3-C ,  4-C ) :   1.3513 B(  3-C ,  8-H ) :   0.9645 
B(  4-C ,  5-N ) :   1.6118 B(  4-C ,  9-H ) :   0.9795 B(  5-N ,  6-N ) :   1.1228 
B(  6-N , 10-H ) :   0.8983 

-------
TIMINGS
-------

Total SCF time: 0 days 0 hours 0 min 53 sec 

Total time                  ....      53.660 sec
Sum of individual times     ....      55.600 sec  (103.6%)

Fock matrix formation       ....      52.931 sec  ( 98.6%)
Diagonalization             ....       0.299 sec  (  0.6%)
Density matrix formation    ....       0.021 sec  (  0.0%)
Population analysis         ....       0.061 sec  (  0.1%)
Initial guess               ....       1.355 sec  (  2.5%)
Orbital Transformation      ....       0.000 sec  (  0.0%)
Orbital Orthonormalization  ....       0.000 sec  (  0.0%)
DIIS solution               ....       0.080 sec  (  0.1%)
SOSCF solution              ....       0.191 sec  (  0.4%)

   <<< Auxbasis replaced with dsgdb9nsd_003911.AUXC.tmp (Dim=592) >>> 


------------------------------------------------------------------------------
                              ORCA MP2 CALCULATION
------------------------------------------------------------------------------

Freezing NCore=14 chemical core electrons

   <<< Use J-auxbasis for calculation of Separable RI-J derivative contributions dsgdb9nsd_003911.AUXJ.tmp (Dim=603) >>> 


---------------------
RI-MP2 ENERGY+DENSITY
---------------------
Dimension of the basis                    ...  241
Memory devoted to MP2                     ... 2000 MB   
Data format for buffers                   ... DOUBLE
Compression type for matrix containers    ... UNCOMPRESSED
Overall scaling of the MP2 energy         ...   1.000e+00 Eh
Calculating two index integrals           ... done (    0.012 sec)
Cholesky decomposition of V**-1           ... done (    0.044 sec)

-----------------
RI-TRANSFORMATION (AUX index driven)
-----------------

Dimension of the orbital-basis         ... 241
Dimension of the aux-basis             ... 592
Transformation of internal MOs         ...    0-  24
Transformation of internal/external MOs...    0-  24 to   25- 240
Number Format for Storage              ... Double (8 Byte)
Integral mode                          ... Direct

First Phase: integral generation and transformation of MO indices
  Aux angular momentum 0               ... done (    0.267 sec)
  Aux angular momentum 1               ... done (    0.365 sec)
  Aux angular momentum 2               ... done (    0.408 sec)
  Aux angular momentum 3               ... done (    0.349 sec)
  Aux angular momentum 4               ... done (    0.161 sec)
Closing buffer VIJ ( 0.00 GB; CompressionRatio= 1.91)
Closing buffer VIA ( 0.02 GB; CompressionRatio= 1.00)
  Phase 1 completed in     1.648 sec
Second Phase: sorting and transformation of aux index

IJ-Transformation
Memory available                       ... 1993 MB 
Max. # MO pairs treated in a batch     ... 25    
# of internal orbitals                 ... 25
# batches for internal orbitals        ... 1
Closing buffer IJV ( 0.00 GB; CompressionRatio= 1.00)
(ij|v) transformation done in     0.062 sec

IA-Transformation
Memory available                       ... 1993 MB 
Max. # MO pairs treated in a batch     ... 25    
# of internal orbitals                 ... 25
# batches for internal orbitals        ... 1
Closing buffer IAV ( 0.02 GB; CompressionRatio= 1.00)
(ia|v) transformation done in     0.414 sec

  Phase 2 completed in     0.484 sec
RI-Integral transformation completed in     2.133 sec
Opening buffers                              ... done
Frozen core precalculation                   ... done

Starting loop over batches of integrals:

Operator 0  - window                       ... (  7- 24)x( 25-240)
Operator 0  - Memory available             ...  2000 MB
Operator 0  - Memory needed per MO         ...   2.0 MB
Operator 0  - Number of orbitals per batch ... 18
Operator 0  - Number of batches            ... 1

OPERATOR  0   PASS   0:  MOs     7 ...   24
  Reading integrals       ... ok
  Internal MO   9
  Internal MO  12
  Internal MO  15
  Internal MO  18
  Internal MO  21
  Internal MO  24
Time spent in pair loops =     7.980 sec
Deleting buffer (Ka|jb)[aa] ...done

-----------------------------------------------
 RI-MP2 CORRELATION ENERGY:     -1.249041272 Eh
-----------------------------------------------


---------------------
MP2 DENSITY FORMATION
---------------------

Completing the external part of the density      ... done
Storing the unrelaxed density                    ... done

Calculating G(D)                                 ... done
Completing the Lagrangian                        ... done
Solving the Z-vector equations                   ... 

------------------------------------------------------------------------------
                           ORCA CP-SCF CALCULATION
------------------------------------------------------------------------------

Input orbitals are from        ... dsgdb9nsd_003911.gbw
Input Perturbation             ... dsgdb9nsd_003911.pin.tmp
Wavefunction output            ... dsgdb9nsd_003911.pout.tmp
Perturbation mode              ... Real perturbation
Solver                         ... POPLE
Max. number of iterations      ... 128
Convergence tolerance          ... 1.000e-08
Integral handling              ... Direct
Number of perturbations        ... 1
Number of operators            ... 1
Orbital ranges used for CP-SCF:
 Operator 0:  Orbitals   0... 24  to  25...240
Variables per vector in CP-SCF ... 5400
Number of vectors sought       ... 1
     CP-SCF ITERATION   0: 
     CP-SCF ITERATION   1:      0.002699943
     CP-SCF ITERATION   2:      0.000847562
     CP-SCF ITERATION   3:      0.000102603
     CP-SCF ITERATION   4:      0.000015904
     CP-SCF ITERATION   5:      0.000002011
     CP-SCF ITERATION   6:      0.000000197
     CP-SCF ITERATION   7:      0.000000035
     CP-SCF ITERATION   8:      0.000000003
done
Finalizing the relaxed density                   ... done
Transforming P to the AO basis                   ... done
Storing the relaxed density                      ... done

                *********************************************
                * UNRELAXED MP2 DENSITY POPULATION ANALYSIS *
                *********************************************

------------------------------------------------------------------------------
                           ORCA POPULATION ANALYSIS
------------------------------------------------------------------------------
Input electron density              ... dsgdb9nsd_003911.pmp2ur
BaseName (.gbw .S,...)              ... dsgdb9nsd_003911

                    ********************************
                    * MULLIKEN POPULATION ANALYSIS *
                    ********************************

-----------------------
MULLIKEN ATOMIC CHARGES
-----------------------
   0 O :   -0.408010
   1 C :    0.173150
   2 C :    0.055937
   3 C :   -0.139490
   4 C :   -0.039619
   5 N :   -0.250032
   6 N :   -0.096416
   7 H :    0.109910
   8 H :    0.158489
   9 H :    0.148803
  10 H :    0.287279
Sum of atomic charges:    0.0000000

--------------------------------
MULLIKEN REDUCED ORBITAL CHARGES
--------------------------------
  0 O s       :     3.843324  s :     3.843324
      pz      :     1.331548  p :     4.497873
      px      :     1.827075
      py      :     1.339250
      dz2     :     0.008167  d :     0.062051
      dxz     :     0.005523
      dyz     :     0.018494
      dx2y2   :     0.016697
      dxy     :     0.013171
      f0      :     0.000538  f :     0.004762
      f+1     :     0.000349
      f-1     :     0.000599
      f+2     :     0.000895
      f-2     :     0.000386
      f+3     :     0.000971
      f-3     :     0.001025
  1 C s       :     3.237534  s :     3.237534
      pz      :     0.674700  p :     2.370183
      px      :     0.907596
      py      :     0.787887
      dz2     :     0.009108  d :     0.199534
      dxz     :     0.012512
      dyz     :     0.053686
      dx2y2   :     0.029645
      dxy     :     0.094583
      f0      :     0.002433  f :     0.019599
      f+1     :     0.001079
      f-1     :     0.001561
      f+2     :     0.002985
      f-2     :     0.001167
      f+3     :     0.006452
      f-3     :     0.003922
  2 C s       :     3.119334  s :     3.119334
      pz      :     0.994627  p :     2.637199
      px      :     0.748896
      py      :     0.893676
      dz2     :     0.006968  d :     0.168144
      dxz     :     0.026732
      dyz     :     0.038668
      dx2y2   :     0.052728
      dxy     :     0.043047
      f0      :     0.002895  f :     0.019386
      f+1     :     0.001846
      f-1     :     0.001647
      f+2     :     0.002240
      f-2     :     0.002105
      f+3     :     0.004984
      f-3     :     0.003670
  3 C s       :     3.086455  s :     3.086455
      pz      :     1.033197  p :     2.917507
      px      :     0.969311
      py      :     0.914999
      dz2     :     0.013542  d :     0.122238
      dxz     :     0.021065
      dyz     :     0.022064
      dx2y2   :     0.028667
      dxy     :     0.036899
      f0      :     0.002086  f :     0.013291
      f+1     :     0.001493
      f-1     :     0.001433
      f+2     :     0.002130
      f-2     :     0.000653
      f+3     :     0.002739
      f-3     :     0.002757
  4 C s       :     3.155763  s :     3.155763
      pz      :     0.972745  p :     2.740410
      px      :     0.876648
      py      :     0.891017
      dz2     :     0.006063  d :     0.127450
      dxz     :     0.030026
      dyz     :     0.021451
      dx2y2   :     0.033821
      dxy     :     0.036089
      f0      :     0.002500  f :     0.015995
      f+1     :     0.001455
      f-1     :     0.001488
      f+2     :     0.001818
      f-2     :     0.001599
      f+3     :     0.003300
      f-3     :     0.003835
  5 N s       :     3.661382  s :     3.661382
      pz      :     1.134846  p :     3.465334
      px      :     1.355603
      py      :     0.974884
      dz2     :     0.013080  d :     0.113767
      dxz     :     0.019114
      dyz     :     0.026560
      dx2y2   :     0.018682
      dxy     :     0.036331
      f0      :     0.001298  f :     0.009550
      f+1     :     0.000993
      f-1     :     0.001053
      f+2     :     0.000645
      f-2     :     0.001848
      f+3     :     0.001763
      f-3     :     0.001951
  6 N s       :     3.350736  s :     3.350736
      pz      :     1.491782  p :     3.605283
      px      :     1.052441
      py      :     1.061059
      dz2     :     0.010930  d :     0.129757
      dxz     :     0.030926
      dyz     :     0.013406
      dx2y2   :     0.041648
      dxy     :     0.032848
      f0      :     0.001466  f :     0.010640
      f+1     :     0.001365
      f-1     :     0.001425
      f+2     :     0.000654
      f-2     :     0.001431
      f+3     :     0.002150
      f-3     :     0.002149
  7 H s       :     0.866180  s :     0.866180
      pz      :     0.003171  p :     0.023910
      px      :     0.014484
      py      :     0.006256
  8 H s       :     0.814850  s :     0.814850
      pz      :     0.005487  p :     0.026661
      px      :     0.010716
      py      :     0.010458
  9 H s       :     0.824885  s :     0.824885
      pz      :     0.005305  p :     0.026312
      px      :     0.007611
      py      :     0.013396
 10 H s       :     0.673337  s :     0.673337
      pz      :     0.010587  p :     0.039384
      px      :     0.006000
      py      :     0.022797


                     *******************************
                     * LOEWDIN POPULATION ANALYSIS *
                     *******************************

----------------------
LOEWDIN ATOMIC CHARGES
----------------------
   0 O :    0.064999
   1 C :   -0.224170
   2 C :   -0.237470
   3 C :   -0.154037
   4 C :   -0.237168
   5 N :    0.032608
   6 N :    0.157350
   7 H :    0.125724
   8 H :    0.141380
   9 H :    0.132387
  10 H :    0.198397

-------------------------------
LOEWDIN REDUCED ORBITAL CHARGES
-------------------------------
  0 O s       :     3.408956  s :     3.408956
      pz      :     1.253491  p :     4.418059
      px      :     1.671164
      py      :     1.493404
      dz2     :     0.013208  d :     0.099015
      dxz     :     0.005473
      dyz     :     0.019691
      dx2y2   :     0.032122
      dxy     :     0.028520
      f0      :     0.000744  f :     0.008970
      f+1     :     0.000478
      f-1     :     0.001344
      f+2     :     0.001138
      f-2     :     0.000394
      f+3     :     0.002566
      f-3     :     0.002307
  1 C s       :     2.806909  s :     2.806909
      pz      :     0.661449  p :     2.633189
      px      :     0.996403
      py      :     0.975337
      dz2     :     0.045576  d :     0.680227
      dxz     :     0.032585
      dyz     :     0.125380
      dx2y2   :     0.162538
      dxy     :     0.314148
      f0      :     0.008061  f :     0.103845
      f+1     :     0.004102
      f-1     :     0.010287
      f+2     :     0.015863
      f-2     :     0.004502
      f+3     :     0.042056
      f-3     :     0.018974
  2 C s       :     2.714806  s :     2.714806
      pz      :     0.894047  p :     2.820136
      px      :     0.918690
      py      :     1.007400
      dz2     :     0.050816  d :     0.613770
      dxz     :     0.083255
      dyz     :     0.104891
      dx2y2   :     0.173091
      dxy     :     0.201717
      f0      :     0.006794  f :     0.088757
      f+1     :     0.007505
      f-1     :     0.005501
      f+2     :     0.012251
      f-2     :     0.010561
      f+3     :     0.028416
      f-3     :     0.017729
  3 C s       :     2.761472  s :     2.761472
      pz      :     0.926004  p :     2.936282
      px      :     1.015162
      py      :     0.995116
      dz2     :     0.033763  d :     0.401576
      dxz     :     0.055960
      dyz     :     0.053896
      dx2y2   :     0.114555
      dxy     :     0.143401
      f0      :     0.003877  f :     0.054707
      f+1     :     0.004439
      f-1     :     0.004519
      f+2     :     0.011924
      f-2     :     0.001158
      f+3     :     0.014313
      f-3     :     0.014478
  4 C s       :     2.781434  s :     2.781434
      pz      :     0.907420  p :     2.875478
      px      :     1.011478
      py      :     0.956580
      dz2     :     0.041504  d :     0.506327
      dxz     :     0.083731
      dyz     :     0.045911
      dx2y2   :     0.140423
      dxy     :     0.194758
      f0      :     0.005049  f :     0.073930
      f+1     :     0.005309
      f-1     :     0.006283
      f+2     :     0.009139
      f-2     :     0.007134
      f+3     :     0.015230
      f-3     :     0.025785
  5 N s       :     3.117035  s :     3.117035
      pz      :     1.061574  p :     3.518882
      px      :     1.367826
      py      :     1.089482
      dz2     :     0.028692  d :     0.297615
      dxz     :     0.027722
      dyz     :     0.070822
      dx2y2   :     0.067189
      dxy     :     0.103190
      f0      :     0.002457  f :     0.033860
      f+1     :     0.002077
      f-1     :     0.003007
      f+2     :     0.001017
      f-2     :     0.007479
      f+3     :     0.007615
      f-3     :     0.010208
  6 N s       :     2.912331  s :     2.912331
      pz      :     1.334809  p :     3.550629
      px      :     1.122553
      py      :     1.093267
      dz2     :     0.026681  d :     0.348727
      dxz     :     0.073594
      dyz     :     0.024162
      dx2y2   :     0.129372
      dxy     :     0.094918
      f0      :     0.002207  f :     0.030964
      f+1     :     0.002916
      f-1     :     0.002735
      f+2     :     0.001313
      f-2     :     0.005791
      f+3     :     0.008807
      f-3     :     0.007194
  7 H s       :     0.815345  s :     0.815345
      pz      :     0.007580  p :     0.058931
      px      :     0.035429
      py      :     0.015922
  8 H s       :     0.791553  s :     0.791553
      pz      :     0.015331  p :     0.067067
      px      :     0.026259
      py      :     0.025477
  9 H s       :     0.802017  s :     0.802017
      pz      :     0.014307  p :     0.065597
      px      :     0.019112
      py      :     0.032178
 10 H s       :     0.690207  s :     0.690207
      pz      :     0.030375  p :     0.111396
      px      :     0.016715
      py      :     0.064306


                      *****************************
                      * MAYER POPULATION ANALYSIS *
                      *****************************

  NA   - Mulliken gross atomic population
  ZA   - Total nuclear charge
  QA   - Mulliken gross atomic charge
  VA   - Mayer's total valence
  BVA  - Mayer's bonded valence
  FA   - Mayer's free valence

  ATOM       NA         ZA         QA         VA         BVA        FA
  0 O      8.4080     8.0000    -0.4080     2.2931     1.8290     0.4640
  1 C      5.8269     6.0000     0.1731     4.0849     3.7393     0.3456
  2 C      5.9441     6.0000     0.0559     3.7754     3.3932     0.3822
  3 C      6.1395     6.0000    -0.1395     3.9347     3.5495     0.3852
  4 C      6.0396     6.0000    -0.0396     4.1199     3.7353     0.3846
  5 N      7.2500     7.0000    -0.2500     3.0784     2.6071     0.4713
  6 N      7.0964     7.0000    -0.0964     3.5047     3.0625     0.4422
  7 H      0.8901     1.0000     0.1099     0.9716     0.9203     0.0513
  8 H      0.8415     1.0000     0.1585     0.9724     0.9254     0.0470
  9 H      0.8512     1.0000     0.1488     0.9883     0.9415     0.0468
 10 H      0.7127     1.0000     0.2873     0.9331     0.8876     0.0455

  Mayer bond orders larger than 0.1
B(  0-O ,  1-C ) :   1.8230 B(  1-C ,  2-C ) :   0.8709 B(  1-C ,  7-H ) :   1.0059 
B(  2-C ,  3-C ) :   1.3949 B(  2-C ,  5-N ) :   0.1026 B(  2-C ,  6-N ) :   1.1592 
B(  2-C ,  7-H ) :  -0.1000 B(  3-C ,  4-C ) :   1.2611 B(  3-C ,  8-H ) :   0.9270 
B(  4-C ,  5-N ) :   1.4805 B(  4-C ,  9-H ) :   0.9427 B(  5-N ,  6-N ) :   1.0269 
B(  6-N , 10-H ) :   0.8615 


                *******************************************
                * RELAXED MP2 DENSITY POPULATION ANALYSIS *
                *******************************************

------------------------------------------------------------------------------
                           ORCA POPULATION ANALYSIS
------------------------------------------------------------------------------
Input electron density              ... dsgdb9nsd_003911.pmp2re
BaseName (.gbw .S,...)              ... dsgdb9nsd_003911

                    ********************************
                    * MULLIKEN POPULATION ANALYSIS *
                    ********************************

-----------------------
MULLIKEN ATOMIC CHARGES
-----------------------
   0 O :   -0.296233
   1 C :    0.074661
   2 C :    0.066492
   3 C :   -0.158317
   4 C :   -0.086718
   5 N :   -0.204885
   6 N :   -0.072228
   7 H :    0.098997
   8 H :    0.156189
   9 H :    0.146824
  10 H :    0.275216
Sum of atomic charges:    0.0000000

--------------------------------
MULLIKEN REDUCED ORBITAL CHARGES
--------------------------------
  0 O s       :     3.823037  s :     3.823037
      pz      :     1.283759  p :     4.409630
      px      :     1.781669
      py      :     1.344203
      dz2     :     0.007928  d :     0.058952
      dxz     :     0.005531
      dyz     :     0.016783
      dx2y2   :     0.014874
      dxy     :     0.013837
      f0      :     0.000507  f :     0.004613
      f+1     :     0.000349
      f-1     :     0.000555
      f+2     :     0.000880
      f-2     :     0.000386
      f+3     :     0.000988
      f-3     :     0.000948
  1 C s       :     3.241140  s :     3.241140
      pz      :     0.755154  p :     2.478862
      px      :     0.936145
      py      :     0.787563
      dz2     :     0.010112  d :     0.187029
      dxz     :     0.013311
      dyz     :     0.043593
      dx2y2   :     0.031480
      dxy     :     0.088534
      f0      :     0.002166  f :     0.018307
      f+1     :     0.001010
      f-1     :     0.001621
      f+2     :     0.002584
      f-2     :     0.001182
      f+3     :     0.006108
      f-3     :     0.003636
  2 C s       :     3.125354  s :     3.125354
      pz      :     1.016821  p :     2.634657
      px      :     0.749316
      py      :     0.868521
      dz2     :     0.008084  d :     0.155080
      dxz     :     0.026827
      dyz     :     0.035495
      dx2y2   :     0.046769
      dxy     :     0.037904
      f0      :     0.002754  f :     0.018417
      f+1     :     0.001776
      f-1     :     0.001551
      f+2     :     0.002105
      f-2     :     0.002013
      f+3     :     0.004998
      f-3     :     0.003220
  3 C s       :     3.124393  s :     3.124393
      pz      :     1.018921  p :     2.911090
      px      :     0.967325
      py      :     0.924844
      dz2     :     0.013371  d :     0.110118
      dxz     :     0.020527
      dyz     :     0.020173
      dx2y2   :     0.021876
      dxy     :     0.034171
      f0      :     0.001955  f :     0.012715
      f+1     :     0.001392
      f-1     :     0.001373
      f+2     :     0.002107
      f-2     :     0.000654
      f+3     :     0.002602
      f-3     :     0.002632
  4 C s       :     3.183518  s :     3.183518
      pz      :     0.990736  p :     2.767638
      px      :     0.884130
      py      :     0.892773
      dz2     :     0.007319  d :     0.120398
      dxz     :     0.028293
      dyz     :     0.019837
      dx2y2   :     0.028461
      dxy     :     0.036488
      f0      :     0.002352  f :     0.015164
      f+1     :     0.001386
      f-1     :     0.001471
      f+2     :     0.001767
      f-2     :     0.001520
      f+3     :     0.002958
      f-3     :     0.003710
  5 N s       :     3.629600  s :     3.629600
      pz      :     1.150671  p :     3.459531
      px      :     1.335668
      py      :     0.973192
      dz2     :     0.012854  d :     0.106604
      dxz     :     0.018667
      dyz     :     0.024106
      dx2y2   :     0.019290
      dxy     :     0.031687
      f0      :     0.001208  f :     0.009149
      f+1     :     0.000960
      f-1     :     0.001008
      f+2     :     0.000635
      f-2     :     0.001763
      f+3     :     0.001652
      f-3     :     0.001922
  6 N s       :     3.372896  s :     3.372896
      pz      :     1.441051  p :     3.562850
      px      :     1.059438
      py      :     1.062360
      dz2     :     0.011165  d :     0.126307
      dxz     :     0.030578
      dyz     :     0.014265
      dx2y2   :     0.041199
      dxy     :     0.029099
      f0      :     0.001416  f :     0.010175
      f+1     :     0.001283
      f-1     :     0.001338
      f+2     :     0.000648
      f-2     :     0.001428
      f+3     :     0.002078
      f-3     :     0.001985
  7 H s       :     0.878467  s :     0.878467
      pz      :     0.003512  p :     0.022536
      px      :     0.012926
      py      :     0.006098
  8 H s       :     0.818506  s :     0.818506
      pz      :     0.005554  p :     0.025305
      px      :     0.009976
      py      :     0.009775
  9 H s       :     0.828238  s :     0.828238
      pz      :     0.005512  p :     0.024938
      px      :     0.007181
      py      :     0.012245
 10 H s       :     0.686924  s :     0.686924
      pz      :     0.010289  p :     0.037860
      px      :     0.006195
      py      :     0.021376


                     *******************************
                     * LOEWDIN POPULATION ANALYSIS *
                     *******************************

----------------------
LOEWDIN ATOMIC CHARGES
----------------------
   0 O :    0.117425
   1 C :   -0.275086
   2 C :   -0.255957
   3 C :   -0.156529
   4 C :   -0.254290
   5 N :    0.040278
   6 N :    0.176637
   7 H :    0.123136
   8 H :    0.147205
   9 H :    0.137058
  10 H :    0.200122

-------------------------------
LOEWDIN REDUCED ORBITAL CHARGES
-------------------------------
  0 O s       :     3.410650  s :     3.410650
      pz      :     1.219930  p :     4.363426
      px      :     1.646973
      py      :     1.496523
      dz2     :     0.013211  d :     0.099372
      dxz     :     0.005478
      dyz     :     0.020238
      dx2y2   :     0.030879
      dxy     :     0.029566
      f0      :     0.000795  f :     0.009127
      f+1     :     0.000480
      f-1     :     0.001334
      f+2     :     0.001248
      f-2     :     0.000395
      f+3     :     0.002596
      f-3     :     0.002280
  1 C s       :     2.813133  s :     2.813133
      pz      :     0.721674  p :     2.690140
      px      :     1.001379
      py      :     0.967086
      dz2     :     0.045515  d :     0.672237
      dxz     :     0.033150
      dyz     :     0.112168
      dx2y2   :     0.164348
      dxy     :     0.317056
      f0      :     0.007197  f :     0.099576
      f+1     :     0.003858
      f-1     :     0.010668
      f+2     :     0.015141
      f-2     :     0.004592
      f+3     :     0.039334
      f-3     :     0.018786
  2 C s       :     2.722722  s :     2.722722
      pz      :     0.912353  p :     2.838014
      px      :     0.921303
      py      :     1.004358
      dz2     :     0.051619  d :     0.607098
      dxz     :     0.081832
      dyz     :     0.100117
      dx2y2   :     0.173089
      dxy     :     0.200441
      f0      :     0.006514  f :     0.088124
      f+1     :     0.007586
      f-1     :     0.005674
      f+2     :     0.011918
      f-2     :     0.010347
      f+3     :     0.028874
      f-3     :     0.017212
  3 C s       :     2.768466  s :     2.768466
      pz      :     0.920328  p :     2.935462
      px      :     1.017455
      py      :     0.997679
      dz2     :     0.033726  d :     0.397374
      dxz     :     0.054444
      dyz     :     0.054515
      dx2y2   :     0.112538
      dxy     :     0.142151
      f0      :     0.003932  f :     0.055228
      f+1     :     0.004500
      f-1     :     0.004586
      f+2     :     0.012157
      f-2     :     0.001133
      f+3     :     0.014420
      f-3     :     0.014500
  4 C s       :     2.789569  s :     2.789569
      pz      :     0.919134  p :     2.891972
      px      :     1.013492
      py      :     0.959346
      dz2     :     0.041639  d :     0.499168
      dxz     :     0.079486
      dyz     :     0.045548
      dx2y2   :     0.137549
      dxy     :     0.194947
      f0      :     0.005016  f :     0.073580
      f+1     :     0.005399
      f-1     :     0.006327
      f+2     :     0.009247
      f-2     :     0.007115
      f+3     :     0.014904
      f-3     :     0.025573
  5 N s       :     3.120987  s :     3.120987
      pz      :     1.079332  p :     3.512676
      px      :     1.343940
      py      :     1.089404
      dz2     :     0.029176  d :     0.292187
      dxz     :     0.026508
      dyz     :     0.067529
      dx2y2   :     0.067562
      dxy     :     0.101412
      f0      :     0.002300  f :     0.033871
      f+1     :     0.002103
      f-1     :     0.003104
      f+2     :     0.001022
      f-2     :     0.007221
      f+3     :     0.007684
      f-3     :     0.010437
  6 N s       :     2.922038  s :     2.922038
      pz      :     1.296682  p :     3.518955
      px      :     1.126404
      py      :     1.095869
      dz2     :     0.027375  d :     0.351400
      dxz     :     0.073797
      dyz     :     0.023777
      dx2y2   :     0.131497
      dxy     :     0.094955
      f0      :     0.002150  f :     0.030969
      f+1     :     0.002953
      f-1     :     0.002729
      f+2     :     0.001327
      f-2     :     0.005898
      f+3     :     0.008783
      f-3     :     0.007129
  7 H s       :     0.817059  s :     0.817059
      pz      :     0.008710  p :     0.059804
      px      :     0.034445
      py      :     0.016650
  8 H s       :     0.785553  s :     0.785553
      pz      :     0.015403  p :     0.067242
      px      :     0.026285
      py      :     0.025554
  9 H s       :     0.797184  s :     0.797184
      pz      :     0.014793  p :     0.065758
      px      :     0.019145
      py      :     0.031820
 10 H s       :     0.690791  s :     0.690791
      pz      :     0.028733  p :     0.109087
      px      :     0.017515
      py      :     0.062839


                      *****************************
                      * MAYER POPULATION ANALYSIS *
                      *****************************

  NA   - Mulliken gross atomic population
  ZA   - Total nuclear charge
  QA   - Mulliken gross atomic charge
  VA   - Mayer's total valence
  BVA  - Mayer's bonded valence
  FA   - Mayer's free valence

  ATOM       NA         ZA         QA         VA         BVA        FA
  0 O      8.2962     8.0000    -0.2962     2.4288     1.9800     0.4488
  1 C      5.9253     6.0000     0.0747     4.2095     3.8770     0.3325
  2 C      5.9335     6.0000     0.0665     3.7016     3.3304     0.3712
  3 C      6.1583     6.0000    -0.1583     3.9787     3.6022     0.3766
  4 C      6.0867     6.0000    -0.0867     4.1897     3.8141     0.3756
  5 N      7.2049     7.0000    -0.2049     3.1617     2.7043     0.4574
  6 N      7.0722     7.0000    -0.0722     3.6335     3.1992     0.4343
  7 H      0.9010     1.0000     0.0990     0.9641     0.9149     0.0492
  8 H      0.8438     1.0000     0.1562     0.9712     0.9250     0.0462
  9 H      0.8532     1.0000     0.1468     0.9851     0.9388     0.0463
 10 H      0.7248     1.0000     0.2752     0.9426     0.8977     0.0449

  Mayer bond orders larger than 0.1
B(  0-O ,  1-C ) :   1.9484 B(  1-C ,  2-C ) :   0.8815 B(  1-C ,  7-H ) :   0.9868 
B(  2-C ,  3-C ) :   1.3200 B(  2-C ,  5-N ) :   0.1075 B(  2-C ,  6-N ) :   1.1734 
B(  2-C ,  7-H ) :  -0.1013 B(  3-C ,  4-C ) :   1.3298 B(  3-C ,  8-H ) :   0.9185 
B(  4-C ,  5-N ) :   1.4697 B(  4-C ,  9-H ) :   0.9353 B(  5-N ,  6-N ) :   1.0894 
B(  6-N , 10-H ) :   0.8568 


-------
TIMINGS
-------

Total time                :  315.893 sec
Integral trafo            :    2.141 sec (  0.7%)
FC preparation            :    0.759 sec (  0.2%)
I/O of integrals          :    0.016 sec (  0.0%)
K(i,j) Operators          :    1.711 sec (  0.5%)
T(i,j) pair energies      :    0.205 sec (  0.1%)
V-calculation             :    0.012 sec (  0.0%)
V**(-1/2)                 :    0.044 sec (  0.0%)
Gamma(ia|P)               :    1.641 sec (  0.5%)
Gamma-Trafo               :    0.376 sec (  0.1%)
D(virtual)                :    0.633 sec (  0.2%)
D(internal)               :    0.555 sec (  0.2%)
W(virtual)                :    0.000 sec (  0.0%)
W(internal)               :    0.000 sec (  0.0%)
L(virtual)                :    2.721 sec (  0.9%)
L(internal)               :    0.050 sec (  0.0%)
G(D)                      :   33.959 sec ( 10.8%)
G(Z)                      :    0.000 sec (  0.0%)
Z-Vector Solution         :  270.813 sec ( 85.7%)
3-Index Derivative        :    0.000 sec (  0.0%)
2-Index Derivative        :    0.000 sec (  0.0%)
Separable Gradient (RIJ)  :    0.000 sec (  0.0%)
Separable Gradient (X)    :    0.000 sec (  0.0%)


---------------------------------------
MP2 TOTAL ENERGY:     -338.900749793 Eh
---------------------------------------

-------------------------   --------------------
FINAL SINGLE POINT ENERGY      -338.900749793470
-------------------------   --------------------


                            ***************************************
                            *     ORCA property calculations      *
                            ***************************************

                                    ---------------------
                                    Active property flags
                                    ---------------------
   (+) Dipole Moment


------------------------------------------------------------------------------
                       ORCA ELECTRIC PROPERTIES CALCULATION
------------------------------------------------------------------------------

Dipole Moment Calculation                       ... on
Quadrupole Moment Calculation                   ... off
Polarizability Calculation                      ... off
GBWName                                         ... dsgdb9nsd_003911.gbw
Electron density file                           ... dsgdb9nsd_003911.scfp.tmp

-------------
DIPOLE MOMENT
-------------
                                X             Y             Z
Electronic contribution:      0.25237      -1.95082      -0.01773
Nuclear contribution   :     -0.67692       2.86834       0.02904
                        -----------------------------------------
Total Dipole Moment    :     -0.42455       0.91752       0.01131
                        -----------------------------------------
Magnitude (a.u.)       :      1.01105
Magnitude (Debye)      :      2.56988


                         *** MP2 UNRELAXED DENSITY ***

------------------------------------------------------------------------------
                       ORCA ELECTRIC PROPERTIES CALCULATION
------------------------------------------------------------------------------

Dipole Moment Calculation                       ... on
Quadrupole Moment Calculation                   ... off
Polarizability Calculation                      ... off
GBWName                                         ... dsgdb9nsd_003911.gbw
Electron density file                           ... dsgdb9nsd_003911.pmp2ur

-------------
DIPOLE MOMENT
-------------
                                X             Y             Z
Electronic contribution:      0.27872      -2.01306      -0.01847
Nuclear contribution   :     -0.67692       2.86834       0.02904
                        -----------------------------------------
Total Dipole Moment    :     -0.39820       0.85529       0.01057
                        -----------------------------------------
Magnitude (a.u.)       :      0.94350
Magnitude (Debye)      :      2.39818


                           *** MP2 RELAXED DENSITY ***

------------------------------------------------------------------------------
                       ORCA ELECTRIC PROPERTIES CALCULATION
------------------------------------------------------------------------------

Dipole Moment Calculation                       ... on
Quadrupole Moment Calculation                   ... off
Polarizability Calculation                      ... off
GBWName                                         ... dsgdb9nsd_003911.gbw
Electron density file                           ... dsgdb9nsd_003911.pmp2re

-------------
DIPOLE MOMENT
-------------
                                X             Y             Z
Electronic contribution:      0.34101      -2.17580      -0.02036
Nuclear contribution   :     -0.67692       2.86834       0.02904
                        -----------------------------------------
Total Dipole Moment    :     -0.33591       0.69255       0.00869
                        -----------------------------------------
Magnitude (a.u.)       :      0.76976
Magnitude (Debye)      :      1.95657


Timings for individual modules:

Sum of individual times         ...      371.386 sec (=   6.190 min)
GTO integral calculation        ...        0.304 sec (=   0.005 min)   0.1 %
SCF iterations                  ...       55.056 sec (=   0.918 min)  14.8 %
MP2 module                      ...      316.026 sec (=   5.267 min)  85.1 %
                             ****ORCA TERMINATED NORMALLY****
TOTAL RUN TIME: 0 days 0 hours 6 minutes 11 seconds 807 msec
