
                                 *****************
                                 * O   R   C   A *
                                 *****************

           --- An Ab Initio, DFT and Semiempirical electronic structure package ---

                  #######################################################
                  #                        -***-                        #
                  #  Department of molecular theory and spectroscopy    #
                  #              Directorship: Frank Neese              #
                  # Max Planck Institute for Chemical Energy Conversion #
                  #                  D-45470 Muelheim/Ruhr              #
                  #                       Germany                       #
                  #                                                     #
                  #                  All rights reserved                #
                  #                        -***-                        #
                  #######################################################


                         Program Version 3.0.3 - RELEASE   -


 With contributions from (in alphabetic order):
   Ute Becker             : Parallelization
   Dmytro Bykov           : SCF Hessian
   Dmitry Ganyushin       : Spin-Orbit,Spin-Spin,Magnetic field MRCI
   Andreas Hansen         : Spin unrestricted coupled pair/coupled cluster methods
   Dimitrios Liakos       : Extrapolation schemes; parallel MDCI
   Robert Izsak           : Overlap fitted RIJCOSX, COSX-SCS-MP3
   Christian Kollmar      : KDIIS, OOCD, Brueckner-CCSD(T), CCSD density
   Simone Kossmann        : Meta GGA functionals, TD-DFT gradient, OOMP2, MP2 Hessian
   Taras Petrenko         : DFT Hessian,TD-DFT gradient, ASA and ECA modules, normal mode analysis, Resonance Raman, ABS, FL, XAS/XES, NRVS
   Christoph Reimann      : Effective Core Potentials
   Michael Roemelt        : Restricted open shell CIS
   Christoph Riplinger    : Improved optimizer, TS searches, QM/MM, DLPNO-CCSD
   Barbara Sandhoefer     : DKH picture change effects
   Igor Schapiro          : Molecular dynamics
   Kantharuban Sivalingam : CASSCF convergence, NEVPT2
   Boris Wezisla          : Elementary symmetry handling
   Frank Wennmohs         : Technical directorship


 We gratefully acknowledge several colleagues who have allowed us to
 interface, adapt or use parts of their codes:
   Stefan Grimme, W. Hujo, H. Kruse, T. Risthaus : VdW corrections, initial TS optimization,
                                                   DFT functionals, gCP
   Ed Valeev                                     : LibInt (2-el integral package), F12 methods
   Garnet Chan, S. Sharma, R. Olivares           : DMRG
   Ulf Ekstrom                                   : XCFun DFT Library
   Mihaly Kallay                                 : mrcc  (arbitrary order and MRCC methods)
   Andreas Klamt, Michael Diedenhofen            : otool_cosmo (COSMO solvation model)
   Frank Weinhold                                : gennbo (NPA and NBO analysis)
   Christopher J. Cramer and Donald G. Truhlar   : smd solvation model


 Your calculation uses the libint2 library for the computation of 2-el integrals
 For citations please refer to: http://libint.valeyev.net

 This ORCA versions uses:
   CBLAS   interface :  Fast vector & matrix operations
   LAPACKE interface :  Fast linear algebra routines
   SCALAPACK package :  Parallel linear algebra routines


Your calculation utilizes the basis: Ahlrichs-TZV
Cite in your paper:
H - Kr: A. Schaefer, H. Horn and R. Ahlrichs, J. Chem. Phys. 97, 2571 (1992).

The def2-TZV basis will be loaded
Cite in your paper:
 	F. Weigend, R. Ahlrichs, Phys. Chem. Chem. Phys. 2005, 7, 3297.

================================================================================
                                        WARNINGS
                       Please study these warnings very carefully!
================================================================================
Now building the actual basis set


INFO   : the flag for use of LIBINT has been found!

================================================================================
                                       INPUT FILE
================================================================================
NAME = dsgdb9nsd_081114.inp
|  1> ! RI-MP2 RIJK def2-TZVP def2-TZVP/C def2-TZVP/JK TIGHTSCF
|  2> % maxcore 2000
|  3> % mp2 density relaxed end
|  4> *xyz 0 1
|  5>  C       -0.2439633254     1.4582174432    -0.0161791627 
|  6>  N        0.0100183917     0.0199207616     0.0071940450 
|  7>  C        1.2185245306    -0.4725285737    -0.7901347133 
|  8>  C        2.1515580110    -0.0345755276     0.3816838985 
|  9>  C        0.8750549537    -0.5069454200     1.1636475230 
| 10>  C        0.8569951115    -2.0049679208     0.8030170566 
| 11>  C        1.0883018670    -1.9738922732    -0.5094288437 
| 12>  C        0.5758628585    -0.0883260847     2.5142214806 
| 13>  N        0.3435316463     0.2665295165     3.5895946555 
| 14>  H        0.6312348925     2.1165793614     0.1004068473 
| 15>  H       -0.7226990358     1.6972029453    -0.9711170623 
| 16>  H       -0.9542170205     1.6965721328     0.7812582427 
| 17>  H        1.3331730896    -0.1171832694    -1.8124219284 
| 18>  H        3.0744670183    -0.5920433534     0.5491307068 
| 19>  H        2.3286503453     1.0399003659     0.4427788523 
| 20>  H        0.6654947552    -2.8161268967     1.4878906149 
| 21>  H        1.1466883004    -2.7768067472    -1.2284663929 
| 22> *
| 23> 
| 24>                          ****END OF INPUT****
================================================================================

                       ****************************
                       * Single Point Calculation *
                       ****************************

---------------------------------
CARTESIAN COORDINATES (ANGSTROEM)
---------------------------------
  C     -0.243963    1.458217   -0.016179
  N      0.010018    0.019921    0.007194
  C      1.218525   -0.472529   -0.790135
  C      2.151558   -0.034576    0.381684
  C      0.875055   -0.506945    1.163648
  C      0.856995   -2.004968    0.803017
  C      1.088302   -1.973892   -0.509429
  C      0.575863   -0.088326    2.514221
  N      0.343532    0.266530    3.589595
  H      0.631235    2.116579    0.100407
  H     -0.722699    1.697203   -0.971117
  H     -0.954217    1.696572    0.781258
  H      1.333173   -0.117183   -1.812422
  H      3.074467   -0.592043    0.549131
  H      2.328650    1.039900    0.442779
  H      0.665495   -2.816127    1.487891
  H      1.146688   -2.776807   -1.228466

----------------------------
CARTESIAN COORDINATES (A.U.)
----------------------------
  NO LB      ZA    FRAG    MASS        X           Y           Z
   0 C     6.0000    0    12.011         -0.461023871726714          2.755631611354868         -0.030574186579154
   1 N     7.0000    0    14.007          0.018932016615350          0.037644783803135          0.013594774845106
   2 C     6.0000    0    12.011          2.302677650298946         -0.892949594745424         -1.493138217041386
   3 C     6.0000    0    12.011          4.065855402034328         -0.065338278099836          0.721278037892396
   4 C     6.0000    0    12.011          1.653614214624141         -0.957988008645685          2.198975134885831
   5 C     6.0000    0    12.011          1.619486058844307         -3.788840277609514          1.517482317841541
   6 C     6.0000    0    12.011          2.056592479665190         -3.730115814211267         -0.962680999313175
   7 C     6.0000    0    12.011          1.088223093262046         -0.166912110564532          4.751190038356003
   8 N     7.0000    0    14.007          0.649180729842102          0.503667792791445          6.783350830682402
   9 H     1.0000    0     1.008          1.192861073000222          3.999755333755934          0.189741443367450
  10 H     1.0000    0     1.008         -1.365703254910950          3.207248760301530         -1.835145291725142
  11 H     1.0000    0     1.008         -1.803208841071321          3.206056697434676          1.476364118571582
  12 H     1.0000    0     1.008          2.519332028457658         -0.221444286643515         -3.424981083789432
  13 H     1.0000    0     1.008          5.809900672360457         -1.118799797334355          1.037706647578608
  14 H     1.0000    0     1.008          4.400511414278157          1.965126898115502          0.836730768738968
  15 H     1.0000    0     1.008          1.257602830888966         -5.321708593132543          2.811705779392691
  16 H     1.0000    0     1.008          2.166926848727623         -5.247404279032703         -2.321465047307102

--------------------------------
INTERNAL COORDINATES (ANGSTROEM)
--------------------------------
 C      0   0   0   0.000000     0.000     0.000
 N      1   0   0   1.460736     0.000     0.000
 C      2   1   0   1.529290   116.495     0.000
 C      3   2   1   1.560613    89.462    79.951
 C      2   1   3   1.537290   116.573    92.631
 C      5   2   1   1.540926    98.658   179.268
 C      6   5   2   1.333035   101.872    45.178
 C      5   2   1   1.445271   119.158    47.844
 N      8   5   2   1.155996   178.922   290.031
 H      1   2   3   1.101365   116.662   316.532
 H      1   2   3   1.094627   107.757    78.153
 H      1   2   3   1.094157   108.403   194.471
 H      3   2   1   1.088341   117.894   311.770
 H      4   3   2   1.091132   118.525   149.551
 H      4   3   2   1.090685   114.557   283.623
 H      6   5   2   1.078751   125.768   226.964
 H      7   6   5   1.079396   130.384   181.640

---------------------------
INTERNAL COORDINATES (A.U.)
---------------------------
 C      0   0   0   0.000000     0.000     0.000
 N      1   0   0   2.760391     0.000     0.000
 C      2   1   0   2.889938   116.495     0.000
 C      3   2   1   2.949131    89.462    79.951
 C      2   1   3   2.905057   116.573    92.631
 C      5   2   1   2.911927    98.658   179.268
 C      6   5   2   2.519071   101.872    45.178
 C      5   2   1   2.731166   119.158    47.844
 N      8   5   2   2.184517   178.922   290.031
 H      1   2   3   2.081278   116.662   316.532
 H      1   2   3   2.068545   107.757    78.153
 H      1   2   3   2.067657   108.403   194.471
 H      3   2   1   2.056666   117.894   311.770
 H      4   3   2   2.061941   118.525   149.551
 H      4   3   2   2.061095   114.557   283.623
 H      6   5   2   2.038543   125.768   226.964
 H      7   6   5   2.039763   130.384   181.640

---------------------
BASIS SET INFORMATION
---------------------
There are 3 groups of distinct atoms

 Group   1 Type C   : 11s6p2d1f contracted to 5s3p2d1f pattern {62111/411/11/1}
 Group   2 Type N   : 11s6p2d1f contracted to 5s3p2d1f pattern {62111/411/11/1}
 Group   3 Type H   : 5s1p contracted to 3s1p pattern {311/1}

Atom   0C    basis set group =>   1
Atom   1N    basis set group =>   2
Atom   2C    basis set group =>   1
Atom   3C    basis set group =>   1
Atom   4C    basis set group =>   1
Atom   5C    basis set group =>   1
Atom   6C    basis set group =>   1
Atom   7C    basis set group =>   1
Atom   8N    basis set group =>   2
Atom   9H    basis set group =>   3
Atom  10H    basis set group =>   3
Atom  11H    basis set group =>   3
Atom  12H    basis set group =>   3
Atom  13H    basis set group =>   3
Atom  14H    basis set group =>   3
Atom  15H    basis set group =>   3
Atom  16H    basis set group =>   3
-------------------------------
AUXILIARY BASIS SET INFORMATION
-------------------------------
There are 3 groups of distinct atoms

 Group   1 Type C   : 14s10p6d2f1g contracted to 10s8p5d1f1g pattern {5111111111/31111111/21111/2/1}
 Group   2 Type N   : 14s10p6d2f1g contracted to 10s8p4d2f1g pattern {5111111111/31111111/3111/11/1}
 Group   3 Type H   : 4s2p2d contracted to 2s2p2d pattern {31/11/11}

Atom   0C    basis set group =>   1
Atom   1N    basis set group =>   2
Atom   2C    basis set group =>   1
Atom   3C    basis set group =>   1
Atom   4C    basis set group =>   1
Atom   5C    basis set group =>   1
Atom   6C    basis set group =>   1
Atom   7C    basis set group =>   1
Atom   8N    basis set group =>   2
Atom   9H    basis set group =>   3
Atom  10H    basis set group =>   3
Atom  11H    basis set group =>   3
Atom  12H    basis set group =>   3
Atom  13H    basis set group =>   3
Atom  14H    basis set group =>   3
Atom  15H    basis set group =>   3
Atom  16H    basis set group =>   3
------------------------------------------------------------------------------
                           ORCA GTO INTEGRAL CALCULATION
                           -- RI-GTO INTEGRALS CHOSEN --
------------------------------------------------------------------------------

                         BASIS SET STATISTICS AND STARTUP INFO

Gaussian basis set:
 # of primitive gaussian shells          ...  228
 # of primitive gaussian functions       ...  478
 # of contracted shells                  ...  131
 # of contracted basis functions         ...  327
 Highest angular momentum                ...    3
 Maximum contraction depth               ...    6
Auxiliary gaussian basis set:
 # of primitive gaussian shells          ...  361
 # of primitive gaussian functions       ... 1033
 # of contracted shells                  ...  273
 # of contracted aux-basis functions     ...  823
 Highest angular momentum                ...    4
 Maximum contraction depth               ...    5
Ratio of auxiliary to basis functions    ...  2.52
Integral package used                  ... LIBINT
 One Electron integrals                  ... done
 Ordering auxiliary basis shells         ... done
 Integral threshhold             Thresh  ...  2.500e-11
 Primitive cut-off               TCut    ...  2.500e-12
 Pre-screening matrix                    ... done
 Shell pair data                         ... 
 Ordering of the shell pairs             ... done (   0.001 sec) 8109 of 8646 pairs
 Determination of significant pairs      ... done (   0.000 sec)
 Creation of shell pair data             ... done (   0.002 sec)
 Storage of shell pair data              ... done (   0.002 sec)
 Shell pair data done in (   0.005 sec)
 Computing two index integrals           ... done
 Cholesky decomposition of the V-matrix  ... done


Timings:
 Total evaluation time                   ...   0.388 sec (  0.006 min)
 One electron matrix time                ...   0.083 sec (  0.001 min) = 21.4%
 Schwartz matrix evaluation time         ...   0.222 sec (  0.004 min) = 57.1%
 Two index repulsion integral time       ...   0.020 sec (  0.000 min) =  5.2%
 Cholesky decomposition of V             ...   0.031 sec (  0.001 min) =  7.9%
 Three index repulsion integral time     ...   0.000 sec (  0.000 min) =  0.0%

-------------------------------------------------------------------------------
                                 ORCA SCF
-------------------------------------------------------------------------------

------------
SCF SETTINGS
------------
Hamiltonian:
 Ab initio Hamiltonian  Method          .... Hartree-Fock(GTOs)
 RI-approximation to the Coulomb term is turned on
   Number of auxiliary basis functions  .... 823
   RI-JK (J+K treated both via RI)      .... on


General Settings:
 Integral files         IntName         .... dsgdb9nsd_081114
 Hartree-Fock type      HFTyp           .... RHF
 Total Charge           Charge          ....    0
 Multiplicity           Mult            ....    1
 Number of Electrons    NEL             ....   64
 Basis Dimension        Dim             ....  327
 Nuclear Repulsion      ENuc            ....    423.7619264295 Eh

Convergence Acceleration:
 DIIS                   CNVDIIS         .... on
   Start iteration      DIISMaxIt       ....    12
   Startup error        DIISStart       ....  0.200000
   # of expansion vecs  DIISMaxEq       ....     5
   Bias factor          DIISBfac        ....   1.050
   Max. coefficient     DIISMaxC        ....  10.000
 Newton-Raphson         CNVNR           .... off
 SOSCF                  CNVSOSCF        .... on
   Start iteration      SOSCFMaxIt      ....   150
   Startup grad/error   SOSCFStart      ....  0.003300
 Level Shifting         CNVShift        .... on
   Level shift para.    LevelShift      ....    0.2500
   Turn off err/grad.   ShiftErr        ....    0.0010
 Zerner damping         CNVZerner       .... off
 Static damping         CNVDamp         .... on
   Fraction old density DampFac         ....    0.7000
   Max. Damping (<1)    DampMax         ....    0.9800
   Min. Damping (>=0)   DampMin         ....    0.0000
   Turn off err/grad.   DampErr         ....    0.1000
 Fernandez-Rico         CNVRico         .... off

SCF Procedure:
 Maximum # iterations   MaxIter         ....   125
 SCF integral mode      SCFMode         .... Direct
   Integral package                     .... LIBINT
 Reset frequeny         DirectResetFreq ....    20
 Integral Threshold     Thresh          ....  2.500e-11 Eh
 Primitive CutOff       TCut            ....  2.500e-12 Eh

Convergence Tolerance:
 Convergence Check Mode ConvCheckMode   .... Total+1el-Energy
 Energy Change          TolE            ....  1.000e-08 Eh
 1-El. energy change                    ....  1.000e-05 Eh
 Orbital Gradient       TolG            ....  1.000e-05
 Orbital Rotation angle TolX            ....  1.000e-05
 DIIS Error             TolErr          ....  5.000e-07


Diagonalization of the overlap matrix:
Smallest eigenvalue                        ... 1.729e-05
Time for diagonalization                   ...    0.030 sec
Threshold for overlap eigenvalues          ... 1.000e-08
Number of eigenvalues below threshold      ... 0
Time for construction of square roots      ...    0.015 sec
Total time needed                          ...    0.046 sec

-------------------
DFT GRID GENERATION
-------------------

General Integration Accuracy     IntAcc      ...  4.340
Radial Grid Type                 RadialGrid  ... Gauss-Chebyshev
Angular Grid (max. acc.)         AngularGrid ... Lebedev-110
Angular grid pruning method      GridPruning ... 3 (G Style)
Weight generation scheme         WeightScheme... Becke
Basis function cutoff            BFCut       ...    1.0000e-11
Integration weight cutoff        WCut        ...    1.0000e-14
Grids for H and He will be reduced by one unit

# of grid points (after initial pruning)     ...  21348 (   0.0 sec)
# of grid points (after weights+screening)   ...  19621 (   0.1 sec)
nearest neighbour list constructed           ...    0.0 sec
Grid point re-assignment to atoms done       ...    0.0 sec
Grid point division into batches done        ...    0.0 sec
Reduced shell lists constructed in    1.2 sec

Total number of grid points                  ...    19621
Total number of batches                      ...      314
Average number of points per batch           ...       62
Average number of grid points per atom       ...     1154
Average number of shells per batch           ...    92.30 (70.46%)
Average number of basis functions per batch  ...   239.34 (73.19%)
Average number of large shells per batch     ...    72.83 (78.90%)
Average number of large basis fcns per batch ...   185.59 (77.54%)
Average number of aux-shells per batch       ...    92.30 (33.81%)
Average number of aux functions per batch    ...   239.34 (  inf%)
Maximum spatial batch extension              ...  22.83, 23.11, 19.61 au
Average spatial batch extension              ...   3.80,  3.78,  3.56 au

Time for grid setup =    1.296 sec

------------------------------
INITIAL GUESS: MODEL POTENTIAL
------------------------------
Loading Hartree-Fock densities                     ... done
Calculating cut-offs                               ... done
Setting up the integral package                    ... done
Initializing the effective Hamiltonian             ... done
Starting the Coulomb interaction                   ... done (   0.6 sec)
Reading the grid                                   ... done
Mapping shells                                     ... done
Starting the XC term evaluation                    ... done (   0.7 sec)
Transforming the Hamiltonian                       ... done (   0.0 sec)
Diagonalizing the Hamiltonian                      ... done (   0.0 sec)
Back transforming the eigenvectors                 ... done (   0.0 sec)
Now organizing SCF variables                       ... done
                      ------------------
                      INITIAL GUESS DONE (   2.8 sec)
                      ------------------
--------------
SCF ITERATIONS
--------------
ITER       Energy         Delta-E        Max-DP      RMS-DP      [F,P]     Damp
  0   -378.2667528044   0.000000000000 0.05398400  0.00121051  0.2653705 0.7000
  1   -378.1717645808   0.094988223625 0.05779218  0.00121567  0.2645567 0.7000
                               ***Turning on DIIS***
  2   -378.2122041414  -0.040439560631 0.03199913  0.00085617  0.1638903 0.7000
  3   -379.0570132053  -0.844809063926 0.02226323  0.00050480  0.1176633 0.7000
  4   -378.5212337336   0.535779471688 0.06972428  0.00129143  0.0768327 0.0000
  5   -378.5573745660  -0.036140832350 0.01801980  0.00030866  0.0354924 0.0000
  6   -378.5504567493   0.006917816728 0.00703423  0.00015037  0.0134727 0.0000
  7   -378.5745629263  -0.024106177042 0.00254512  0.00006959  0.0078819 0.0000
  8   -378.5760035927  -0.001440666358 0.00190792  0.00005687  0.0067596 0.0000
                      *** Initiating the SOSCF procedure ***
                           *** Shutting down DIIS ***
                      *** Re-Reading the Fockian *** 
                      *** Removing any level shift *** 
ITER      Energy       Delta-E        Grad      Rot      Max-DP    RMS-DP
  9   -378.63568237  -0.0596787742  0.000247  0.000247  0.001086  0.000021
 10   -378.63710680  -0.0014244366  0.000084  0.000138  0.000417  0.000006
 11   -378.63710715  -0.0000003427  0.000032  0.000050  0.000252  0.000004
 12   -378.63710727  -0.0000001250  0.000011  0.000029  0.000095  0.000001
 13   -378.63710728  -0.0000000072  0.000004  0.000007  0.000034  0.000000
                  ***Gradient check signals convergence***
              ***Rediagonalizing the Fockian in SOSCF/NRSCF***

               *****************************************************
               *                     SUCCESS                       *
               *           SCF CONVERGED AFTER  14 CYCLES          *
               *****************************************************


----------------
TOTAL SCF ENERGY
----------------

Total Energy       :         -378.63710728 Eh          -10303.23950 eV

Components:
Nuclear Repulsion  :          423.76192643 Eh           11531.14825 eV
Electronic Energy  :         -802.39903371 Eh          -21834.38775 eV

One Electron Energy:        -1352.25596373 Eh          -36796.75548 eV
Two Electron Energy:          549.85693002 Eh           14962.36774 eV

Virial components:
Potential Energy   :         -756.68435790 Eh          -20590.42818 eV
Kinetic Energy     :          378.04725062 Eh           10287.18868 eV
Virial Ratio       :            2.00156027


---------------
SCF CONVERGENCE
---------------

  Last Energy change         ...   -8.7607e-10  Tolerance :   1.0000e-08
  Last MAX-Density change    ...    7.8040e-06  Tolerance :   1.0000e-07
  Last RMS-Density change    ...    1.4965e-07  Tolerance :   5.0000e-09
  Last Orbital Gradient      ...    2.1015e-06  Tolerance :   1.0000e-05
  Last Orbital Rotation      ...    4.3065e-06  Tolerance :   1.0000e-05

             **** THE GBW FILE WAS UPDATED (dsgdb9nsd_081114.gbw) ****
             **** DENSITY FILE WAS UPDATED (dsgdb9nsd_081114.scfp.tmp) ****
             **** ENERGY FILE WAS UPDATED (dsgdb9nsd_081114.en.tmp) ****
----------------
ORBITAL ENERGIES
----------------

  NO   OCC          E(Eh)            E(eV) 
   0   2.0000     -15.578664      -423.9170 
   1   2.0000     -15.577586      -423.8877 
   2   2.0000     -11.323530      -308.1289 
   3   2.0000     -11.292210      -307.2767 
   4   2.0000     -11.277495      -306.8762 
   5   2.0000     -11.259945      -306.3987 
   6   2.0000     -11.254148      -306.2409 
   7   2.0000     -11.252882      -306.2065 
   8   2.0000     -11.249461      -306.1134 
   9   2.0000      -1.298106       -35.3233 
  10   2.0000      -1.221273       -33.2325 
  11   2.0000      -1.100601       -29.9489 
  12   2.0000      -0.997612       -27.1464 
  13   2.0000      -0.983120       -26.7521 
  14   2.0000      -0.911560       -24.8048 
  15   2.0000      -0.816877       -22.2284 
  16   2.0000      -0.760881       -20.7046 
  17   2.0000      -0.738179       -20.0869 
  18   2.0000      -0.668613       -18.1939 
  19   2.0000      -0.616665       -16.7803 
  20   2.0000      -0.612206       -16.6590 
  21   2.0000      -0.600918       -16.3518 
  22   2.0000      -0.574241       -15.6259 
  23   2.0000      -0.561475       -15.2785 
  24   2.0000      -0.540635       -14.7114 
  25   2.0000      -0.532502       -14.4901 
  26   2.0000      -0.521702       -14.1962 
  27   2.0000      -0.494429       -13.4541 
  28   2.0000      -0.460569       -12.5327 
  29   2.0000      -0.443691       -12.0735 
  30   2.0000      -0.382308       -10.4031 
  31   2.0000      -0.366953        -9.9853 
  32   0.0000       0.120262         3.2725 
  33   0.0000       0.135734         3.6935 
  34   0.0000       0.149859         4.0779 
  35   0.0000       0.155660         4.2357 
  36   0.0000       0.164284         4.4704 
  37   0.0000       0.174424         4.7463 
  38   0.0000       0.188262         5.1229 
  39   0.0000       0.192129         5.2281 
  40   0.0000       0.199926         5.4403 
  41   0.0000       0.207785         5.6541 
  42   0.0000       0.217284         5.9126 
  43   0.0000       0.246493         6.7074 
  44   0.0000       0.254950         6.9375 
  45   0.0000       0.261516         7.1162 
  46   0.0000       0.273117         7.4319 
  47   0.0000       0.298531         8.1234 
  48   0.0000       0.306287         8.3345 
  49   0.0000       0.307139         8.3577 
  50   0.0000       0.326802         8.8927 
  51   0.0000       0.343103         9.3363 
  52   0.0000       0.349744         9.5170 
  53   0.0000       0.357684         9.7331 
  54   0.0000       0.377321        10.2674 
  55   0.0000       0.393312        10.7026 
  56   0.0000       0.414148        11.2695 
  57   0.0000       0.431238        11.7346 
  58   0.0000       0.445477        12.1221 
  59   0.0000       0.463212        12.6046 
  60   0.0000       0.469139        12.7659 
  61   0.0000       0.477164        12.9843 
  62   0.0000       0.481043        13.0898 
  63   0.0000       0.492259        13.3950 
  64   0.0000       0.507556        13.8113 
  65   0.0000       0.516000        14.0411 
  66   0.0000       0.526362        14.3230 
  67   0.0000       0.534888        14.5550 
  68   0.0000       0.536883        14.6093 
  69   0.0000       0.547142        14.8885 
  70   0.0000       0.554704        15.0943 
  71   0.0000       0.557659        15.1747 
  72   0.0000       0.564062        15.3489 
  73   0.0000       0.576287        15.6816 
  74   0.0000       0.599533        16.3141 
  75   0.0000       0.603601        16.4248 
  76   0.0000       0.624221        16.9859 
  77   0.0000       0.630895        17.1675 
  78   0.0000       0.639607        17.4046 
  79   0.0000       0.667293        18.1580 
  80   0.0000       0.675916        18.3926 
  81   0.0000       0.681504        18.5447 
  82   0.0000       0.688523        18.7357 
  83   0.0000       0.698752        19.0140 
  84   0.0000       0.713931        19.4271 
  85   0.0000       0.737727        20.0746 
  86   0.0000       0.752617        20.4798 
  87   0.0000       0.782591        21.2954 
  88   0.0000       0.797033        21.6884 
  89   0.0000       0.807346        21.9690 
  90   0.0000       0.808010        21.9871 
  91   0.0000       0.845224        22.9997 
  92   0.0000       0.873842        23.7784 
  93   0.0000       0.892474        24.2855 
  94   0.0000       0.896336        24.3905 
  95   0.0000       0.936087        25.4722 
  96   0.0000       0.953566        25.9478 
  97   0.0000       0.992144        26.9976 
  98   0.0000       1.000145        27.2153 
  99   0.0000       1.012969        27.5643 
 100   0.0000       1.026187        27.9240 
 101   0.0000       1.049322        28.5535 
 102   0.0000       1.088825        29.6284 
 103   0.0000       1.111031        30.2327 
 104   0.0000       1.131107        30.7790 
 105   0.0000       1.149148        31.2699 
 106   0.0000       1.152193        31.3528 
 107   0.0000       1.157735        31.5036 
 108   0.0000       1.196731        32.5647 
 109   0.0000       1.207629        32.8613 
 110   0.0000       1.219339        33.1799 
 111   0.0000       1.256779        34.1987 
 112   0.0000       1.264321        34.4039 
 113   0.0000       1.279137        34.8071 
 114   0.0000       1.295952        35.2646 
 115   0.0000       1.312289        35.7092 
 116   0.0000       1.326023        36.0829 
 117   0.0000       1.339975        36.4626 
 118   0.0000       1.355628        36.8885 
 119   0.0000       1.367513        37.2119 
 120   0.0000       1.383344        37.6427 
 121   0.0000       1.398225        38.0476 
 122   0.0000       1.427926        38.8558 
 123   0.0000       1.445817        39.3427 
 124   0.0000       1.464586        39.8534 
 125   0.0000       1.469424        39.9851 
 126   0.0000       1.494968        40.6801 
 127   0.0000       1.529411        41.6174 
 128   0.0000       1.547979        42.1226 
 129   0.0000       1.561985        42.5038 
 130   0.0000       1.603067        43.6217 
 131   0.0000       1.631064        44.3835 
 132   0.0000       1.643456        44.7207 
 133   0.0000       1.669175        45.4206 
 134   0.0000       1.686567        45.8938 
 135   0.0000       1.719426        46.7880 
 136   0.0000       1.738924        47.3185 
 137   0.0000       1.757704        47.8295 
 138   0.0000       1.767336        48.0917 
 139   0.0000       1.777367        48.3646 
 140   0.0000       1.796198        48.8770 
 141   0.0000       1.814857        49.3848 
 142   0.0000       1.822534        49.5937 
 143   0.0000       1.836254        49.9670 
 144   0.0000       1.850068        50.3429 
 145   0.0000       1.866009        50.7767 
 146   0.0000       1.881647        51.2022 
 147   0.0000       1.891668        51.4749 
 148   0.0000       1.916234        52.1434 
 149   0.0000       1.918544        52.2062 
 150   0.0000       1.936862        52.7047 
 151   0.0000       1.985062        54.0163 
 152   0.0000       1.990889        54.1749 
 153   0.0000       2.047914        55.7266 
 154   0.0000       2.080119        56.6029 
 155   0.0000       2.114511        57.5388 
 156   0.0000       2.132495        58.0281 
 157   0.0000       2.138201        58.1834 
 158   0.0000       2.160577        58.7923 
 159   0.0000       2.201463        59.9049 
 160   0.0000       2.218917        60.3798 
 161   0.0000       2.260241        61.5043 
 162   0.0000       2.271306        61.8054 
 163   0.0000       2.294344        62.4323 
 164   0.0000       2.317206        63.0544 
 165   0.0000       2.360617        64.2357 
 166   0.0000       2.378734        64.7286 
 167   0.0000       2.397893        65.2500 
 168   0.0000       2.406618        65.4874 
 169   0.0000       2.426548        66.0297 
 170   0.0000       2.474990        67.3479 
 171   0.0000       2.490811        67.7784 
 172   0.0000       2.508234        68.2525 
 173   0.0000       2.518536        68.5329 
 174   0.0000       2.528346        68.7998 
 175   0.0000       2.550703        69.4082 
 176   0.0000       2.586119        70.3719 
 177   0.0000       2.610767        71.0426 
 178   0.0000       2.636567        71.7446 
 179   0.0000       2.655051        72.2476 
 180   0.0000       2.659157        72.3593 
 181   0.0000       2.666337        72.5547 
 182   0.0000       2.684279        73.0429 
 183   0.0000       2.707312        73.6697 
 184   0.0000       2.719794        74.0094 
 185   0.0000       2.764172        75.2169 
 186   0.0000       2.776425        75.5504 
 187   0.0000       2.793358        76.0111 
 188   0.0000       2.818798        76.7034 
 189   0.0000       2.828262        76.9609 
 190   0.0000       2.841840        77.3304 
 191   0.0000       2.856559        77.7309 
 192   0.0000       2.875202        78.2382 
 193   0.0000       2.879159        78.3459 
 194   0.0000       2.915384        79.3316 
 195   0.0000       2.935248        79.8721 
 196   0.0000       2.946317        80.1734 
 197   0.0000       2.960748        80.5661 
 198   0.0000       2.966396        80.7197 
 199   0.0000       2.987630        81.2976 
 200   0.0000       3.001924        81.6865 
 201   0.0000       3.031744        82.4979 
 202   0.0000       3.060416        83.2782 
 203   0.0000       3.070418        83.5503 
 204   0.0000       3.089460        84.0685 
 205   0.0000       3.090863        84.1067 
 206   0.0000       3.098941        84.3265 
 207   0.0000       3.130789        85.1931 
 208   0.0000       3.156458        85.8916 
 209   0.0000       3.181839        86.5822 
 210   0.0000       3.184446        86.6532 
 211   0.0000       3.214843        87.4803 
 212   0.0000       3.226014        87.7843 
 213   0.0000       3.234473        88.0145 
 214   0.0000       3.260478        88.7221 
 215   0.0000       3.269693        88.9729 
 216   0.0000       3.324262        90.4578 
 217   0.0000       3.356456        91.3338 
 218   0.0000       3.359796        91.4247 
 219   0.0000       3.376648        91.8833 
 220   0.0000       3.393197        92.3336 
 221   0.0000       3.408938        92.7619 
 222   0.0000       3.419626        93.0528 
 223   0.0000       3.427351        93.2630 
 224   0.0000       3.453178        93.9657 
 225   0.0000       3.459786        94.1456 
 226   0.0000       3.473193        94.5104 
 227   0.0000       3.490978        94.9943 
 228   0.0000       3.519297        95.7649 
 229   0.0000       3.535173        96.1969 
 230   0.0000       3.555666        96.7546 
 231   0.0000       3.559252        96.8522 
 232   0.0000       3.579418        97.4009 
 233   0.0000       3.597278        97.8869 
 234   0.0000       3.607674        98.1698 
 235   0.0000       3.628309        98.7313 
 236   0.0000       3.639888        99.0464 
 237   0.0000       3.650788        99.3430 
 238   0.0000       3.674938       100.0002 
 239   0.0000       3.700381       100.6925 
 240   0.0000       3.717723       101.1644 
 241   0.0000       3.748968       102.0146 
 242   0.0000       3.771541       102.6289 
 243   0.0000       3.794401       103.2509 
 244   0.0000       3.808319       103.6296 
 245   0.0000       3.817091       103.8683 
 246   0.0000       3.844507       104.6144 
 247   0.0000       3.861808       105.0851 
 248   0.0000       3.896326       106.0244 
 249   0.0000       3.920742       106.6888 
 250   0.0000       3.928724       106.9060 
 251   0.0000       3.949923       107.4829 
 252   0.0000       4.011454       109.1572 
 253   0.0000       4.014755       109.2470 
 254   0.0000       4.053558       110.3029 
 255   0.0000       4.066695       110.6604 
 256   0.0000       4.103603       111.6647 
 257   0.0000       4.108605       111.8008 
 258   0.0000       4.128844       112.3516 
 259   0.0000       4.168914       113.4419 
 260   0.0000       4.173828       113.5756 
 261   0.0000       4.229611       115.0936 
 262   0.0000       4.257956       115.8649 
 263   0.0000       4.277816       116.4053 
 264   0.0000       4.333125       117.9103 
 265   0.0000       4.343680       118.1976 
 266   0.0000       4.349805       118.3642 
 267   0.0000       4.361431       118.6806 
 268   0.0000       4.404786       119.8603 
 269   0.0000       4.420420       120.2858 
 270   0.0000       4.442602       120.8894 
 271   0.0000       4.465423       121.5103 
 272   0.0000       4.516533       122.9011 
 273   0.0000       4.575465       124.5047 
 274   0.0000       4.601115       125.2027 
 275   0.0000       4.624781       125.8467 
 276   0.0000       4.626722       125.8995 
 277   0.0000       4.680740       127.3694 
 278   0.0000       4.708995       128.1383 
 279   0.0000       4.742722       129.0560 
 280   0.0000       4.760021       129.5268 
 281   0.0000       4.762466       129.5933 
 282   0.0000       4.789008       130.3155 
 283   0.0000       4.805509       130.7646 
 284   0.0000       4.855916       132.1362 
 285   0.0000       4.880678       132.8100 
 286   0.0000       4.933988       134.2606 
 287   0.0000       4.980622       135.5296 
 288   0.0000       4.991256       135.8190 
 289   0.0000       5.021149       136.6324 
 290   0.0000       5.057203       137.6135 
 291   0.0000       5.072966       138.0424 
 292   0.0000       5.084913       138.3675 
 293   0.0000       5.124458       139.4436 
 294   0.0000       5.164444       140.5317 
 295   0.0000       5.213247       141.8597 
 296   0.0000       5.304156       144.3334 
 297   0.0000       5.340324       145.3176 
 298   0.0000       5.407254       147.1389 
 299   0.0000       5.469070       148.8210 
 300   0.0000       5.515683       150.0894 
 301   0.0000       5.569523       151.5544 
 302   0.0000       5.607195       152.5795 
 303   0.0000       5.633200       153.2872 
 304   0.0000       5.671445       154.3279 
 305   0.0000       5.683147       154.6463 
 306   0.0000       5.702651       155.1770 
 307   0.0000       5.719505       155.6356 
 308   0.0000       5.875110       159.8699 
 309   0.0000       5.925304       161.2357 
 310   0.0000       5.935569       161.5150 
 311   0.0000       6.058417       164.8579 
 312   0.0000       6.120648       166.5513 
 313   0.0000       6.204942       168.8451 
 314   0.0000       6.244030       169.9087 
 315   0.0000       6.307881       171.6462 
 316   0.0000       6.394269       173.9969 
 317   0.0000       6.715866       182.7480 
 318   0.0000      23.321181       634.6016 
 319   0.0000      23.496233       639.3650 
 320   0.0000      23.562657       641.1725 
 321   0.0000      23.657878       643.7636 
 322   0.0000      23.865904       649.4243 
 323   0.0000      24.321999       661.8352 
 324   0.0000      24.813489       675.2094 
 325   0.0000      33.464837       910.6245 
 326   0.0000      34.000904       925.2116 

                    ********************************
                    * MULLIKEN POPULATION ANALYSIS *
                    ********************************

-----------------------
MULLIKEN ATOMIC CHARGES
-----------------------
   0 C :   -0.267834
   1 N :   -0.248015
   2 C :    0.045475
   3 C :   -0.221871
   4 C :    0.522475
   5 C :   -0.318197
   6 C :   -0.192003
   7 C :   -0.200398
   8 N :   -0.151653
   9 H :    0.087706
  10 H :    0.121029
  11 H :    0.134523
  12 H :    0.147010
  13 H :    0.116373
  14 H :    0.120084
  15 H :    0.156446
  16 H :    0.148851
Sum of atomic charges:    0.0000000

--------------------------------
MULLIKEN REDUCED ORBITAL CHARGES
--------------------------------
  0 C s       :     3.235383  s :     3.235383
      pz      :     1.086354  p :     2.925115
      px      :     1.049578
      py      :     0.789183
      dz2     :     0.016798  d :     0.100449
      dxz     :     0.014085
      dyz     :     0.015964
      dx2y2   :     0.015924
      dxy     :     0.037679
      f0      :     0.000553  f :     0.006886
      f+1     :     0.001274
      f-1     :     0.000714
      f+2     :     0.000624
      f-2     :     0.000146
      f+3     :     0.001692
      f-3     :     0.001884
  1 N s       :     3.553267  s :     3.553267
      pz      :     1.031048  p :     3.609690
      px      :     1.397030
      py      :     1.181612
      dz2     :     0.011955  d :     0.080965
      dxz     :     0.024489
      dyz     :     0.012714
      dx2y2   :     0.022867
      dxy     :     0.008940
      f0      :     0.000391  f :     0.004093
      f+1     :     0.000559
      f-1     :     0.000346
      f+2     :     0.000652
      f-2     :     0.000658
      f+3     :     0.000715
      f-3     :     0.000772
  2 C s       :     3.072362  s :     3.072362
      pz      :     1.009047  p :     2.734770
      px      :     0.820652
      py      :     0.905072
      dz2     :     0.027692  d :     0.135422
      dxz     :     0.026984
      dyz     :     0.020484
      dx2y2   :     0.033866
      dxy     :     0.026397
      f0      :     0.002007  f :     0.011970
      f+1     :     0.002082
      f-1     :     0.001382
      f+2     :     0.001880
      f-2     :     0.001471
      f+3     :     0.001657
      f-3     :     0.001492
  3 C s       :     3.239932  s :     3.239932
      pz      :     0.889949  p :     2.883661
      px      :     0.949913
      py      :     1.043799
      dz2     :     0.020450  d :     0.091353
      dxz     :     0.024948
      dyz     :     0.010454
      dx2y2   :     0.021580
      dxy     :     0.013921
      f0      :     0.000771  f :     0.006925
      f+1     :     0.001445
      f-1     :     0.000558
      f+2     :     0.001075
      f-2     :     0.000907
      f+3     :     0.000681
      f-3     :     0.001489
  4 C s       :     3.013714  s :     3.013714
      pz      :     0.524890  p :     2.284751
      px      :     0.879071
      py      :     0.880790
      dz2     :     0.033608  d :     0.165706
      dxz     :     0.035911
      dyz     :     0.029308
      dx2y2   :     0.038123
      dxy     :     0.028756
      f0      :     0.002387  f :     0.013354
      f+1     :     0.002533
      f-1     :     0.001905
      f+2     :     0.002344
      f-2     :     0.001443
      f+3     :     0.001427
      f-3     :     0.001315
  5 C s       :     3.265650  s :     3.265650
      pz      :     0.996480  p :     2.951652
      px      :     1.006087
      py      :     0.949086
      dz2     :     0.024418  d :     0.091826
      dxz     :     0.019050
      dyz     :     0.029462
      dx2y2   :     0.010867
      dxy     :     0.008030
      f0      :     0.001471  f :     0.009069
      f+1     :     0.001831
      f-1     :     0.002142
      f+2     :     0.001314
      f-2     :     0.000405
      f+3     :     0.000810
      f-3     :     0.001097
  6 C s       :     3.188565  s :     3.188565
      pz      :     0.978203  p :     2.903253
      px      :     0.966086
      py      :     0.958963
      dz2     :     0.025991  d :     0.091168
      dxz     :     0.019829
      dyz     :     0.025531
      dx2y2   :     0.010577
      dxy     :     0.009241
      f0      :     0.001489  f :     0.009017
      f+1     :     0.001948
      f-1     :     0.002146
      f+2     :     0.001231
      f-2     :     0.000186
      f+3     :     0.000845
      f-3     :     0.001171
  7 C s       :     3.244487  s :     3.244487
      pz      :     1.009547  p :     2.843396
      px      :     0.917259
      py      :     0.916590
      dz2     :     0.019047  d :     0.095003
      dxz     :     0.035266
      dyz     :     0.029527
      dx2y2   :     0.006684
      dxy     :     0.004479
      f0      :     0.005355  f :     0.017512
      f+1     :     0.004389
      f-1     :     0.003955
      f+2     :     0.001959
      f-2     :     0.001620
      f+3     :     0.000113
      f-3     :     0.000121
  8 N s       :     3.697629  s :     3.697629
      pz      :     1.262312  p :     3.396121
      px      :     1.057020
      py      :     1.076789
      dz2     :     0.014902  d :     0.054954
      dxz     :     0.017881
      dyz     :     0.016549
      dx2y2   :     0.002863
      dxy     :     0.002760
      f0      :     0.000890  f :     0.002948
      f+1     :     0.000744
      f-1     :     0.000647
      f+2     :     0.000328
      f-2     :     0.000297
      f+3     :     0.000020
      f-3     :     0.000022
  9 H s       :     0.891192  s :     0.891192
      pz      :     0.003550  p :     0.021102
      px      :     0.009993
      py      :     0.007559
 10 H s       :     0.857331  s :     0.857331
      pz      :     0.011976  p :     0.021640
      px      :     0.006097
      py      :     0.003568
 11 H s       :     0.843680  s :     0.843680
      pz      :     0.009581  p :     0.021796
      px      :     0.008668
      py      :     0.003548
 12 H s       :     0.831028  s :     0.831028
      pz      :     0.014339  p :     0.021962
      px      :     0.003008
      py      :     0.004615
 13 H s       :     0.861174  s :     0.861174
      pz      :     0.003678  p :     0.022454
      px      :     0.012401
      py      :     0.006374
 14 H s       :     0.856795  s :     0.856795
      pz      :     0.003674  p :     0.023122
      px      :     0.004013
      py      :     0.015435
 15 H s       :     0.819901  s :     0.819901
      pz      :     0.008136  p :     0.023653
      px      :     0.004632
      py      :     0.010885
 16 H s       :     0.827551  s :     0.827551
      pz      :     0.008678  p :     0.023598
      px      :     0.004175
      py      :     0.010746


                     *******************************
                     * LOEWDIN POPULATION ANALYSIS *
                     *******************************

----------------------
LOEWDIN ATOMIC CHARGES
----------------------
   0 C :   -0.300288
   1 N :    0.109122
   2 C :   -0.168409
   3 C :   -0.127049
   4 C :   -0.216383
   5 C :   -0.079800
   6 C :   -0.101662
   7 C :   -0.124962
   8 N :    0.044243
   9 H :    0.095853
  10 H :    0.111067
  11 H :    0.115899
  12 H :    0.126182
  13 H :    0.124611
  14 H :    0.124545
  15 H :    0.135675
  16 H :    0.131357

-------------------------------
LOEWDIN REDUCED ORBITAL CHARGES
-------------------------------
  0 C s       :     2.836713  s :     2.836713
      pz      :     1.082251  p :     3.058449
      px      :     1.057448
      py      :     0.918750
      dz2     :     0.056308  d :     0.364902
      dxz     :     0.049601
      dyz     :     0.059968
      dx2y2   :     0.077896
      dxy     :     0.121128
      f0      :     0.003497  f :     0.040224
      f+1     :     0.003484
      f-1     :     0.005526
      f+2     :     0.006110
      f-2     :     0.001851
      f+3     :     0.008730
      f-3     :     0.011026
  1 N s       :     3.016981  s :     3.016981
      pz      :     1.026634  p :     3.603586
      px      :     1.355646
      py      :     1.221307
      dz2     :     0.039093  d :     0.252100
      dxz     :     0.054547
      dyz     :     0.050771
      dx2y2   :     0.064500
      dxy     :     0.043188
      f0      :     0.002185  f :     0.018212
      f+1     :     0.002828
      f-1     :     0.001407
      f+2     :     0.004160
      f-2     :     0.002532
      f+3     :     0.003050
      f-3     :     0.002049
  2 C s       :     2.742201  s :     2.742201
      pz      :     0.960136  p :     2.803231
      px      :     0.876774
      py      :     0.966322
      dz2     :     0.156627  d :     0.551373
      dxz     :     0.095970
      dyz     :     0.088457
      dx2y2   :     0.123286
      dxy     :     0.087033
      f0      :     0.010146  f :     0.071603
      f+1     :     0.012597
      f-1     :     0.006015
      f+2     :     0.013560
      f-2     :     0.010522
      f+3     :     0.011640
      f-3     :     0.007124
  3 C s       :     2.789142  s :     2.789142
      pz      :     0.933224  p :     2.924871
      px      :     0.972639
      py      :     1.019009
      dz2     :     0.076033  d :     0.374848
      dxz     :     0.079061
      dyz     :     0.041439
      dx2y2   :     0.106147
      dxy     :     0.072168
      f0      :     0.004644  f :     0.038188
      f+1     :     0.006893
      f-1     :     0.003835
      f+2     :     0.007042
      f-2     :     0.007055
      f+3     :     0.004059
      f-3     :     0.004659
  4 C s       :     2.684261  s :     2.684261
      pz      :     0.898528  p :     2.774839
      px      :     0.917218
      py      :     0.959093
      dz2     :     0.194260  d :     0.674726
      dxz     :     0.144927
      dyz     :     0.120471
      dx2y2   :     0.126393
      dxy     :     0.088674
      f0      :     0.013067  f :     0.082558
      f+1     :     0.015377
      f-1     :     0.010830
      f+2     :     0.016007
      f-2     :     0.011949
      f+3     :     0.009505
      f-3     :     0.005823
  5 C s       :     2.772661  s :     2.772661
      pz      :     1.063856  p :     2.895732
      px      :     0.902074
      py      :     0.929801
      dz2     :     0.084110  d :     0.365792
      dxz     :     0.044704
      dyz     :     0.149915
      dx2y2   :     0.040919
      dxy     :     0.046144
      f0      :     0.008932  f :     0.045615
      f+1     :     0.007229
      f-1     :     0.014838
      f+2     :     0.003378
      f-2     :     0.001719
      f+3     :     0.004999
      f-3     :     0.004520
  6 C s       :     2.775958  s :     2.775958
      pz      :     1.068398  p :     2.908427
      px      :     0.877214
      py      :     0.962815
      dz2     :     0.087112  d :     0.371115
      dxz     :     0.043807
      dyz     :     0.151616
      dx2y2   :     0.041845
      dxy     :     0.046735
      f0      :     0.009511  f :     0.046162
      f+1     :     0.007663
      f-1     :     0.014414
      f+2     :     0.003721
      f-2     :     0.001142
      f+3     :     0.005059
      f-3     :     0.004652
  7 C s       :     2.818182  s :     2.818182
      pz      :     1.124781  p :     2.821437
      px      :     0.842940
      py      :     0.853715
      dz2     :     0.143424  d :     0.426148
      dxz     :     0.120532
      dyz     :     0.125317
      dx2y2   :     0.022090
      dxy     :     0.014785
      f0      :     0.019138  f :     0.059196
      f+1     :     0.013783
      f-1     :     0.015442
      f+2     :     0.005352
      f-2     :     0.004856
      f+3     :     0.000309
      f-3     :     0.000315
  8 N s       :     3.305275  s :     3.305275
      pz      :     1.432453  p :     3.522126
      px      :     1.027787
      py      :     1.061886
      dz2     :     0.041060  d :     0.113206
      dxz     :     0.030626
      dyz     :     0.032437
      dx2y2   :     0.004443
      dxy     :     0.004639
      f0      :     0.004933  f :     0.015150
      f+1     :     0.003440
      f-1     :     0.004080
      f+2     :     0.001230
      f-2     :     0.001318
      f+3     :     0.000075
      f-3     :     0.000074
  9 H s       :     0.844262  s :     0.844262
      pz      :     0.012600  p :     0.059885
      px      :     0.027853
      py      :     0.019432
 10 H s       :     0.829673  s :     0.829673
      pz      :     0.031299  p :     0.059260
      px      :     0.017600
      py      :     0.010361
 11 H s       :     0.824017  s :     0.824017
      pz      :     0.026097  p :     0.060084
      px      :     0.023618
      py      :     0.010370
 12 H s       :     0.814751  s :     0.814751
      pz      :     0.035528  p :     0.059067
      px      :     0.010035
      py      :     0.013504
 13 H s       :     0.814940  s :     0.814940
      pz      :     0.011781  p :     0.060449
      px      :     0.029765
      py      :     0.018904
 14 H s       :     0.814240  s :     0.814240
      pz      :     0.011936  p :     0.061214
      px      :     0.011675
      py      :     0.037603
 15 H s       :     0.801010  s :     0.801010
      pz      :     0.020797  p :     0.063315
      px      :     0.014344
      py      :     0.028174
 16 H s       :     0.806298  s :     0.806298
      pz      :     0.021723  p :     0.062345
      px      :     0.012994
      py      :     0.027629


                      *****************************
                      * MAYER POPULATION ANALYSIS *
                      *****************************

  NA   - Mulliken gross atomic population
  ZA   - Total nuclear charge
  QA   - Mulliken gross atomic charge
  VA   - Mayer's total valence
  BVA  - Mayer's bonded valence
  FA   - Mayer's free valence

  ATOM       NA         ZA         QA         VA         BVA        FA
  0 C      6.2678     6.0000    -0.2678     3.9357     3.9357     0.0000
  1 N      7.2480     7.0000    -0.2480     2.8127     2.8127     0.0000
  2 C      5.9545     6.0000     0.0455     3.9298     3.9298     0.0000
  3 C      6.2219     6.0000    -0.2219     3.9760     3.9760     0.0000
  4 C      5.4775     6.0000     0.5225     3.5313     3.5313     0.0000
  5 C      6.3182     6.0000    -0.3182     4.0012     4.0012    -0.0000
  6 C      6.1920     6.0000    -0.1920     3.8855     3.8855    -0.0000
  7 C      6.2004     6.0000    -0.2004     3.8859     3.8859     0.0000
  8 N      7.1517     7.0000    -0.1517     3.0733     3.0733    -0.0000
  9 H      0.9123     1.0000     0.0877     0.9566     0.9566     0.0000
 10 H      0.8790     1.0000     0.1210     0.9669     0.9669     0.0000
 11 H      0.8655     1.0000     0.1345     0.9714     0.9714     0.0000
 12 H      0.8530     1.0000     0.1470     0.9607     0.9607    -0.0000
 13 H      0.8836     1.0000     0.1164     0.9843     0.9843    -0.0000
 14 H      0.8799     1.0000     0.1201     0.9661     0.9661     0.0000
 15 H      0.8436     1.0000     0.1564     0.9835     0.9835    -0.0000
 16 H      0.8511     1.0000     0.1489     0.9829     0.9829    -0.0000

  Mayer bond orders larger than 0.1
B(  0-C ,  1-N ) :   0.9381 B(  0-C ,  9-H ) :   0.9768 B(  0-C , 10-H ) :   0.9864 
B(  0-C , 11-H ) :   0.9845 B(  1-N ,  2-C ) :   0.9613 B(  1-N ,  4-C ) :   0.9086 
B(  2-C ,  3-C ) :   1.0365 B(  2-C ,  6-C ) :   1.0048 B(  2-C , 12-H ) :   0.9401 
B(  3-C ,  4-C ) :   0.9272 B(  3-C , 13-H ) :   0.9686 B(  3-C , 14-H ) :   0.9809 
B(  4-C ,  5-C ) :   0.9347 B(  4-C ,  7-C ) :   0.8526 B(  5-C ,  6-C ) :   1.9991 
B(  5-C , 15-H ) :   0.9611 B(  6-C , 16-H ) :   0.9632 B(  7-C ,  8-N ) :   3.0602 


-------
TIMINGS
-------

Total SCF time: 0 days 0 hours 2 min 13 sec 

Total time                  ....     133.517 sec
Sum of individual times     ....     137.466 sec  (103.0%)

Fock matrix formation       ....     132.159 sec  ( 99.0%)
Diagonalization             ....       0.612 sec  (  0.5%)
Density matrix formation    ....       0.038 sec  (  0.0%)
Population analysis         ....       0.146 sec  (  0.1%)
Initial guess               ....       2.782 sec  (  2.1%)
Orbital Transformation      ....       0.000 sec  (  0.0%)
Orbital Orthonormalization  ....       0.000 sec  (  0.0%)
DIIS solution               ....       0.190 sec  (  0.1%)
SOSCF solution              ....       0.242 sec  (  0.2%)

   <<< Auxbasis replaced with dsgdb9nsd_081114.AUXC.tmp (Dim=804) >>> 


------------------------------------------------------------------------------
                              ORCA MP2 CALCULATION
------------------------------------------------------------------------------

Freezing NCore=18 chemical core electrons

   <<< Use J-auxbasis for calculation of Separable RI-J derivative contributions dsgdb9nsd_081114.AUXJ.tmp (Dim=823) >>> 


---------------------
RI-MP2 ENERGY+DENSITY
---------------------
Dimension of the basis                    ...  327
Memory devoted to MP2                     ... 2000 MB   
Data format for buffers                   ... DOUBLE
Compression type for matrix containers    ... UNCOMPRESSED
Overall scaling of the MP2 energy         ...   1.000e+00 Eh
Calculating two index integrals           ... done (    0.017 sec)
Cholesky decomposition of V**-1           ... done (    0.102 sec)

-----------------
RI-TRANSFORMATION (AUX index driven)
-----------------

Dimension of the orbital-basis         ... 327
Dimension of the aux-basis             ... 804
Transformation of internal MOs         ...    0-  31
Transformation of internal/external MOs...    0-  31 to   32- 326
Number Format for Storage              ... Double (8 Byte)
Integral mode                          ... Direct

First Phase: integral generation and transformation of MO indices
  Aux angular momentum 0               ... done (    0.693 sec)
  Aux angular momentum 1               ... done (    0.926 sec)
  Aux angular momentum 2               ... done (    1.002 sec)
  Aux angular momentum 3               ... done (    0.805 sec)
  Aux angular momentum 4               ... done (    0.373 sec)
Closing buffer VIJ ( 0.00 GB; CompressionRatio= 1.93)
Closing buffer VIA ( 0.06 GB; CompressionRatio= 1.00)
  Phase 1 completed in     3.898 sec
Second Phase: sorting and transformation of aux index

IJ-Transformation
Memory available                       ... 1987 MB 
Max. # MO pairs treated in a batch     ... 32    
# of internal orbitals                 ... 32
# batches for internal orbitals        ... 1
Closing buffer IJV ( 0.00 GB; CompressionRatio= 1.00)
(ij|v) transformation done in     0.155 sec

IA-Transformation
Memory available                       ... 1987 MB 
Max. # MO pairs treated in a batch     ... 32    
# of internal orbitals                 ... 32
# batches for internal orbitals        ... 1
Closing buffer IAV ( 0.06 GB; CompressionRatio= 1.00)
(ia|v) transformation done in     1.248 sec

  Phase 2 completed in     1.543 sec
RI-Integral transformation completed in     5.442 sec
Opening buffers                              ... done
Frozen core precalculation                   ... done

Starting loop over batches of integrals:

Operator 0  - window                       ... (  9- 31)x( 32-326)
Operator 0  - Memory available             ...  2000 MB
Operator 0  - Memory needed per MO         ...   3.6 MB
Operator 0  - Number of orbitals per batch ... 23
Operator 0  - Number of batches            ... 1

OPERATOR  0   PASS   0:  MOs     9 ...   31
  Reading integrals       ... ok
  Internal MO  11
  Internal MO  14
  Internal MO  17
  Internal MO  20
  Internal MO  23
  Internal MO  26
  Internal MO  29
Time spent in pair loops =    30.414 sec
Deleting buffer (Ka|jb)[aa] ...done

-----------------------------------------------
 RI-MP2 CORRELATION ENERGY:     -1.504543611 Eh
-----------------------------------------------


---------------------
MP2 DENSITY FORMATION
---------------------

Completing the external part of the density      ... done
Storing the unrelaxed density                    ... done

Calculating G(D)                                 ... done
Completing the Lagrangian                        ... done
Solving the Z-vector equations                   ... 

------------------------------------------------------------------------------
                           ORCA CP-SCF CALCULATION
------------------------------------------------------------------------------

Input orbitals are from        ... dsgdb9nsd_081114.gbw
Input Perturbation             ... dsgdb9nsd_081114.pin.tmp
Wavefunction output            ... dsgdb9nsd_081114.pout.tmp
Perturbation mode              ... Real perturbation
Solver                         ... POPLE
Max. number of iterations      ... 128
Convergence tolerance          ... 1.000e-08
Integral handling              ... Direct
Number of perturbations        ... 1
Number of operators            ... 1
Orbital ranges used for CP-SCF:
 Operator 0:  Orbitals   0... 31  to  32...326
Variables per vector in CP-SCF ... 9440
Number of vectors sought       ... 1
     CP-SCF ITERATION   0: 
     CP-SCF ITERATION   1:      0.001445285
     CP-SCF ITERATION   2:      0.000259494
     CP-SCF ITERATION   3:      0.000024459
     CP-SCF ITERATION   4:      0.000003990
     CP-SCF ITERATION   5:      0.000000716
     CP-SCF ITERATION   6:      0.000000166
     CP-SCF ITERATION   7:      0.000000029
     CP-SCF ITERATION   8:      0.000000003
done
Finalizing the relaxed density                   ... done
Transforming P to the AO basis                   ... done
Storing the relaxed density                      ... done

                *********************************************
                * UNRELAXED MP2 DENSITY POPULATION ANALYSIS *
                *********************************************

------------------------------------------------------------------------------
                           ORCA POPULATION ANALYSIS
------------------------------------------------------------------------------
Input electron density              ... dsgdb9nsd_081114.pmp2ur
BaseName (.gbw .S,...)              ... dsgdb9nsd_081114

                    ********************************
                    * MULLIKEN POPULATION ANALYSIS *
                    ********************************

-----------------------
MULLIKEN ATOMIC CHARGES
-----------------------
   0 C :   -0.279285
   1 N :   -0.237103
   2 C :    0.038951
   3 C :   -0.231865
   4 C :    0.502686
   5 C :   -0.320297
   6 C :   -0.195063
   7 C :   -0.200700
   8 N :   -0.137008
   9 H :    0.090388
  10 H :    0.124424
  11 H :    0.137673
  12 H :    0.150871
  13 H :    0.120021
  14 H :    0.124039
  15 H :    0.159743
  16 H :    0.152525
Sum of atomic charges:    0.0000000

--------------------------------
MULLIKEN REDUCED ORBITAL CHARGES
--------------------------------
  0 C s       :     3.232842  s :     3.232842
      pz      :     1.080515  p :     2.912223
      px      :     1.044440
      py      :     0.787268
      dz2     :     0.021544  d :     0.123764
      dxz     :     0.019383
      dyz     :     0.021312
      dx2y2   :     0.019960
      dxy     :     0.041565
      f0      :     0.001114  f :     0.010457
      f+1     :     0.001731
      f-1     :     0.001198
      f+2     :     0.001160
      f-2     :     0.000725
      f+3     :     0.002207
      f-3     :     0.002322
  1 N s       :     3.545081  s :     3.545081
      pz      :     1.023666  p :     3.573838
      px      :     1.380199
      py      :     1.169973
      dz2     :     0.017688  d :     0.110723
      dxz     :     0.029551
      dyz     :     0.018823
      dx2y2   :     0.028831
      dxy     :     0.015830
      f0      :     0.000842  f :     0.007460
      f+1     :     0.001027
      f-1     :     0.000782
      f+2     :     0.001162
      f-2     :     0.001122
      f+3     :     0.001248
      f-3     :     0.001276
  2 C s       :     3.068688  s :     3.068688
      pz      :     1.002352  p :     2.719383
      px      :     0.818082
      py      :     0.898949
      dz2     :     0.033122  d :     0.157130
      dxz     :     0.029988
      dyz     :     0.025987
      dx2y2   :     0.037037
      dxy     :     0.030996
      f0      :     0.002599  f :     0.015848
      f+1     :     0.002665
      f-1     :     0.001988
      f+2     :     0.002424
      f-2     :     0.002004
      f+3     :     0.002228
      f-3     :     0.001940
  3 C s       :     3.237779  s :     3.237779
      pz      :     0.885109  p :     2.868560
      px      :     0.944598
      py      :     1.038853
      dz2     :     0.025144  d :     0.114852
      dxz     :     0.028003
      dyz     :     0.015855
      dx2y2   :     0.026521
      dxy     :     0.019329
      f0      :     0.001287  f :     0.010674
      f+1     :     0.001932
      f-1     :     0.001041
      f+2     :     0.001624
      f-2     :     0.001431
      f+3     :     0.001328
      f-3     :     0.002030
  4 C s       :     3.012408  s :     3.012408
      pz      :     0.527200  p :     2.274509
      px      :     0.873030
      py      :     0.874279
      dz2     :     0.039660  d :     0.192650
      dxz     :     0.040751
      dyz     :     0.036019
      dx2y2   :     0.042103
      dxy     :     0.034117
      f0      :     0.003075  f :     0.017747
      f+1     :     0.003198
      f-1     :     0.002588
      f+2     :     0.002972
      f-2     :     0.002042
      f+3     :     0.002048
      f-3     :     0.001823
  5 C s       :     3.264060  s :     3.264060
      pz      :     0.990508  p :     2.929886
      px      :     0.997232
      py      :     0.942147
      dz2     :     0.027440  d :     0.113694
      dxz     :     0.023497
      dyz     :     0.034251
      dx2y2   :     0.015071
      dxy     :     0.013435
      f0      :     0.001976  f :     0.012657
      f+1     :     0.002267
      f-1     :     0.002851
      f+2     :     0.001809
      f-2     :     0.001004
      f+3     :     0.001264
      f-3     :     0.001486
  6 C s       :     3.185738  s :     3.185738
      pz      :     0.972197  p :     2.883760
      px      :     0.959036
      py      :     0.952527
      dz2     :     0.028686  d :     0.112940
      dxz     :     0.024028
      dyz     :     0.030714
      dx2y2   :     0.014820
      dxy     :     0.014692
      f0      :     0.002007  f :     0.012625
      f+1     :     0.002374
      f-1     :     0.002838
      f+2     :     0.001744
      f-2     :     0.000798
      f+3     :     0.001307
      f-3     :     0.001558
  7 C s       :     3.238842  s :     3.238842
      pz      :     1.001018  p :     2.831383
      px      :     0.915333
      py      :     0.915032
      dz2     :     0.020698  d :     0.109987
      dxz     :     0.037533
      dyz     :     0.031954
      dx2y2   :     0.010900
      dxy     :     0.008903
      f0      :     0.005812  f :     0.020487
      f+1     :     0.004862
      f-1     :     0.004435
      f+2     :     0.002424
      f-2     :     0.002093
      f+3     :     0.000427
      f-3     :     0.000434
  8 N s       :     3.683569  s :     3.683569
      pz      :     1.250727  p :     3.371146
      px      :     1.050656
      py      :     1.069764
      dz2     :     0.018970  d :     0.076663
      dxz     :     0.021965
      dyz     :     0.020661
      dx2y2   :     0.007581
      dxy     :     0.007485
      f0      :     0.001320  f :     0.005629
      f+1     :     0.001172
      f-1     :     0.001070
      f+2     :     0.000728
      f-2     :     0.000694
      f+3     :     0.000322
      f-3     :     0.000324
  9 H s       :     0.885197  s :     0.885197
      pz      :     0.004732  p :     0.024415
      px      :     0.011022
      py      :     0.008661
 10 H s       :     0.850825  s :     0.850825
      pz      :     0.012889  p :     0.024751
      px      :     0.007138
      py      :     0.004724
 11 H s       :     0.837466  s :     0.837466
      pz      :     0.010534  p :     0.024861
      px      :     0.009630
      py      :     0.004698
 12 H s       :     0.824020  s :     0.824020
      pz      :     0.015200  p :     0.025108
      px      :     0.004180
      py      :     0.005729
 13 H s       :     0.854448  s :     0.854448
      pz      :     0.004836  p :     0.025532
      px      :     0.013274
      py      :     0.007422
 14 H s       :     0.849680  s :     0.849680
      pz      :     0.004851  p :     0.026280
      px      :     0.005137
      py      :     0.016292
 15 H s       :     0.813688  s :     0.813688
      pz      :     0.009093  p :     0.026570
      px      :     0.005712
      py      :     0.011765
 16 H s       :     0.820912  s :     0.820912
      pz      :     0.009628  p :     0.026563
      px      :     0.005287
      py      :     0.011649


                     *******************************
                     * LOEWDIN POPULATION ANALYSIS *
                     *******************************

----------------------
LOEWDIN ATOMIC CHARGES
----------------------
   0 C :   -0.306836
   1 N :    0.115610
   2 C :   -0.171869
   3 C :   -0.132084
   4 C :   -0.219197
   5 C :   -0.082883
   6 C :   -0.104742
   7 C :   -0.130567
   8 N :    0.052007
   9 H :    0.097319
  10 H :    0.113065
  11 H :    0.117880
  12 H :    0.128202
  13 H :    0.126610
  14 H :    0.126469
  15 H :    0.137692
  16 H :    0.133325

-------------------------------
LOEWDIN REDUCED ORBITAL CHARGES
-------------------------------
  0 C s       :     2.835286  s :     2.835286
      pz      :     1.074459  p :     3.037354
      px      :     1.050281
      py      :     0.912614
      dz2     :     0.061802  d :     0.388569
      dxz     :     0.055263
      dyz     :     0.064275
      dx2y2   :     0.082809
      dxy     :     0.124419
      f0      :     0.004165  f :     0.045628
      f+1     :     0.004322
      f-1     :     0.006376
      f+2     :     0.006766
      f-2     :     0.002575
      f+3     :     0.009455
      f-3     :     0.011969
  1 N s       :     3.013806  s :     3.013806
      pz      :     1.017218  p :     3.564515
      px      :     1.339522
      py      :     1.207775
      dz2     :     0.044901  d :     0.283405
      dxz     :     0.061305
      dyz     :     0.056294
      dx2y2   :     0.071141
      dxy     :     0.049763
      f0      :     0.002757  f :     0.022665
      f+1     :     0.003440
      f-1     :     0.002015
      f+2     :     0.004778
      f-2     :     0.003177
      f+3     :     0.003695
      f-3     :     0.002803
  2 C s       :     2.741082  s :     2.741082
      pz      :     0.952800  p :     2.780691
      px      :     0.870465
      py      :     0.957426
      dz2     :     0.159592  d :     0.572484
      dxz     :     0.100831
      dyz     :     0.093256
      dx2y2   :     0.127566
      dxy     :     0.091238
      f0      :     0.011111  f :     0.077612
      f+1     :     0.013352
      f-1     :     0.007048
      f+2     :     0.014422
      f-2     :     0.011299
      f+3     :     0.012305
      f-3     :     0.008075
  3 C s       :     2.787313  s :     2.787313
      pz      :     0.924250  p :     2.899894
      px      :     0.964507
      py      :     1.011136
      dz2     :     0.080634  d :     0.400723
      dxz     :     0.084662
      dyz     :     0.046913
      dx2y2   :     0.110978
      dxy     :     0.077536
      f0      :     0.005374  f :     0.044155
      f+1     :     0.007810
      f-1     :     0.004548
      f+2     :     0.007900
      f-2     :     0.007894
      f+3     :     0.004886
      f-3     :     0.005741
  4 C s       :     2.683298  s :     2.683298
      pz      :     0.891481  p :     2.749160
      px      :     0.908407
      py      :     0.949272
      dz2     :     0.196753  d :     0.696682
      dxz     :     0.149925
      dyz     :     0.125413
      dx2y2   :     0.131266
      dxy     :     0.093325
      f0      :     0.014428  f :     0.090058
      f+1     :     0.016553
      f-1     :     0.012154
      f+2     :     0.016931
      f-2     :     0.012895
      f+3     :     0.010263
      f-3     :     0.006833
  5 C s       :     2.770354  s :     2.770354
      pz      :     1.053147  p :     2.868139
      px      :     0.893499
      py      :     0.921492
      dz2     :     0.090596  d :     0.392557
      dxz     :     0.050661
      dyz     :     0.153149
      dx2y2   :     0.047219
      dxy     :     0.050932
      f0      :     0.010316  f :     0.051833
      f+1     :     0.008193
      f-1     :     0.015819
      f+2     :     0.004284
      f-2     :     0.002453
      f+3     :     0.005551
      f-3     :     0.005217
  6 C s       :     2.773510  s :     2.773510
      pz      :     1.057718  p :     2.881249
      px      :     0.869835
      py      :     0.953696
      dz2     :     0.093492  d :     0.397618
      dxz     :     0.049485
      dyz     :     0.154902
      dx2y2   :     0.048211
      dxy     :     0.051528
      f0      :     0.010867  f :     0.052366
      f+1     :     0.008614
      f-1     :     0.015457
      f+2     :     0.004597
      f-2     :     0.001857
      f+3     :     0.005616
      f-3     :     0.005358
  7 C s       :     2.814939  s :     2.814939
      pz      :     1.112959  p :     2.800600
      px      :     0.838332
      py      :     0.849309
      dz2     :     0.149560  d :     0.448115
      dxz     :     0.123751
      dyz     :     0.129086
      dx2y2   :     0.026337
      dxy     :     0.019382
      f0      :     0.020975  f :     0.066913
      f+1     :     0.015398
      f-1     :     0.017003
      f+2     :     0.006373
      f-2     :     0.005815
      f+3     :     0.000670
      f-3     :     0.000678
  8 N s       :     3.297462  s :     3.297462
      pz      :     1.417518  p :     3.488278
      px      :     1.018705
      py      :     1.052055
      dz2     :     0.047745  d :     0.142662
      dxz     :     0.036957
      dyz     :     0.038868
      dx2y2   :     0.009457
      dxy     :     0.009635
      f0      :     0.005907  f :     0.019591
      f+1     :     0.004273
      f-1     :     0.004957
      f+2     :     0.001797
      f-2     :     0.001878
      f+3     :     0.000390
      f-3     :     0.000389
  9 H s       :     0.837117  s :     0.837117
      pz      :     0.013934  p :     0.065564
      px      :     0.030110
      py      :     0.021519
 10 H s       :     0.822452  s :     0.822452
      pz      :     0.033560  p :     0.064483
      px      :     0.019101
      py      :     0.011822
 11 H s       :     0.816858  s :     0.816858
      pz      :     0.028025  p :     0.065261
      px      :     0.025406
      py      :     0.011830
 12 H s       :     0.807341  s :     0.807341
      pz      :     0.038024  p :     0.064457
      px      :     0.011433
      py      :     0.015001
 13 H s       :     0.807536  s :     0.807536
      pz      :     0.013171  p :     0.065855
      px      :     0.032145
      py      :     0.020538
 14 H s       :     0.806805  s :     0.806805
      pz      :     0.013311  p :     0.066725
      px      :     0.013120
      py      :     0.040294
 15 H s       :     0.794037  s :     0.794037
      pz      :     0.022532  p :     0.068271
      px      :     0.015616
      py      :     0.030124
 16 H s       :     0.799324  s :     0.799324
      pz      :     0.023515  p :     0.067351
      px      :     0.014265
      py      :     0.029571


                      *****************************
                      * MAYER POPULATION ANALYSIS *
                      *****************************

  NA   - Mulliken gross atomic population
  ZA   - Total nuclear charge
  QA   - Mulliken gross atomic charge
  VA   - Mayer's total valence
  BVA  - Mayer's bonded valence
  FA   - Mayer's free valence

  ATOM       NA         ZA         QA         VA         BVA        FA
  0 C      6.2793     6.0000    -0.2793     4.0510     3.7469     0.3041
  1 N      7.2371     7.0000    -0.2371     3.0304     2.5776     0.4528
  2 C      5.9610     6.0000     0.0390     4.0125     3.6653     0.3473
  3 C      6.2319     6.0000    -0.2319     4.0916     3.7492     0.3424
  4 C      5.4973     6.0000     0.5027     3.6287     3.2657     0.3630
  5 C      6.3203     6.0000    -0.3203     4.1142     3.7174     0.3969
  6 C      6.1951     6.0000    -0.1951     3.9953     3.6073     0.3881
  7 C      6.2007     6.0000    -0.2007     3.9898     3.5469     0.4429
  8 N      7.1370     7.0000    -0.1370     3.2599     2.7762     0.4837
  9 H      0.9096     1.0000     0.0904     0.9671     0.9136     0.0535
 10 H      0.8756     1.0000     0.1244     0.9753     0.9262     0.0491
 11 H      0.8623     1.0000     0.1377     0.9794     0.9306     0.0488
 12 H      0.8491     1.0000     0.1509     0.9679     0.9191     0.0488
 13 H      0.8800     1.0000     0.1200     0.9923     0.9412     0.0511
 14 H      0.8760     1.0000     0.1240     0.9743     0.9240     0.0503
 15 H      0.8403     1.0000     0.1597     0.9900     0.9425     0.0475
 16 H      0.8475     1.0000     0.1525     0.9892     0.9422     0.0469

  Mayer bond orders larger than 0.1
B(  0-C ,  1-N ) :   0.8746 B(  0-C ,  9-H ) :   0.9358 B(  0-C , 10-H ) :   0.9472 
B(  0-C , 11-H ) :   0.9454 B(  1-N ,  2-C ) :   0.8828 B(  1-N ,  4-C ) :   0.8297 
B(  2-C ,  3-C ) :   0.9653 B(  2-C ,  6-C ) :   0.9381 B(  2-C , 12-H ) :   0.9023 
B(  3-C ,  4-C ) :   0.8589 B(  3-C , 13-H ) :   0.9289 B(  3-C , 14-H ) :   0.9413 
B(  4-C ,  5-C ) :   0.8678 B(  4-C ,  7-C ) :   0.8079 B(  5-C ,  6-C ) :   1.8323 
B(  5-C , 15-H ) :   0.9242 B(  6-C , 16-H ) :   0.9259 B(  7-C ,  8-N ) :   2.7719 



                *******************************************
                * RELAXED MP2 DENSITY POPULATION ANALYSIS *
                *******************************************

------------------------------------------------------------------------------
                           ORCA POPULATION ANALYSIS
------------------------------------------------------------------------------
Input electron density              ... dsgdb9nsd_081114.pmp2re
BaseName (.gbw .S,...)              ... dsgdb9nsd_081114

                    ********************************
                    * MULLIKEN POPULATION ANALYSIS *
                    ********************************

-----------------------
MULLIKEN ATOMIC CHARGES
-----------------------
   0 C :   -0.340534
   1 N :   -0.185637
   2 C :   -0.028598
   3 C :   -0.215681
   4 C :    0.307974
   5 C :   -0.237746
   6 C :   -0.178525
   7 C :   -0.223947
   8 N :   -0.028821
   9 H :    0.104374
  10 H :    0.147239
  11 H :    0.157655
  12 H :    0.149403
  13 H :    0.130715
  14 H :    0.138613
  15 H :    0.155275
  16 H :    0.148241
Sum of atomic charges:    0.0000000

--------------------------------
MULLIKEN REDUCED ORBITAL CHARGES
--------------------------------
  0 C s       :     3.242471  s :     3.242471
      pz      :     1.103325  p :     2.975916
      px      :     1.071194
      py      :     0.801397
      dz2     :     0.018337  d :     0.112254
      dxz     :     0.015963
      dyz     :     0.021334
      dx2y2   :     0.018799
      dxy     :     0.037821
      f0      :     0.001091  f :     0.009892
      f+1     :     0.001614
      f-1     :     0.001116
      f+2     :     0.001127
      f-2     :     0.000711
      f+3     :     0.002028
      f-3     :     0.002204
  1 N s       :     3.554875  s :     3.554875
      pz      :     1.018348  p :     3.517571
      px      :     1.348012
      py      :     1.151210
      dz2     :     0.016378  d :     0.105908
      dxz     :     0.026113
      dyz     :     0.019396
      dx2y2   :     0.027359
      dxy     :     0.016662
      f0      :     0.000838  f :     0.007284
      f+1     :     0.000985
      f-1     :     0.000720
      f+2     :     0.001146
      f-2     :     0.001095
      f+3     :     0.001288
      f-3     :     0.001212
  2 C s       :     3.135139  s :     3.135139
      pz      :     0.990367  p :     2.730267
      px      :     0.829521
      py      :     0.910379
      dz2     :     0.033169  d :     0.148054
      dxz     :     0.025885
      dyz     :     0.026351
      dx2y2   :     0.033280
      dxy     :     0.029369
      f0      :     0.002573  f :     0.015138
      f+1     :     0.002565
      f-1     :     0.001898
      f+2     :     0.002351
      f-2     :     0.001843
      f+3     :     0.002208
      f-3     :     0.001702
  3 C s       :     3.218756  s :     3.218756
      pz      :     0.887653  p :     2.885652
      px      :     0.950141
      py      :     1.047858
      dz2     :     0.022371  d :     0.101148
      dxz     :     0.022580
      dyz     :     0.015812
      dx2y2   :     0.023641
      dxy     :     0.016744
      f0      :     0.001267  f :     0.010126
      f+1     :     0.001748
      f-1     :     0.000969
      f+2     :     0.001524
      f-2     :     0.001369
      f+3     :     0.001353
      f-3     :     0.001896
  4 C s       :     3.092092  s :     3.092092
      pz      :     0.611931  p :     2.391935
      px      :     0.884629
      py      :     0.895375
      dz2     :     0.042016  d :     0.190949
      dxz     :     0.040983
      dyz     :     0.037942
      dx2y2   :     0.037770
      dxy     :     0.032238
      f0      :     0.002947  f :     0.017050
      f+1     :     0.003179
      f-1     :     0.002456
      f+2     :     0.002911
      f-2     :     0.001925
      f+3     :     0.002036
      f-3     :     0.001595
  5 C s       :     3.244760  s :     3.244760
      pz      :     0.962940  p :     2.881421
      px      :     0.989765
      py      :     0.928716
      dz2     :     0.023339  d :     0.099640
      dxz     :     0.017909
      dyz     :     0.031301
      dx2y2   :     0.012621
      dxy     :     0.014470
      f0      :     0.001753  f :     0.011926
      f+1     :     0.002050
      f-1     :     0.002808
      f+2     :     0.001654
      f-2     :     0.001007
      f+3     :     0.001282
      f-3     :     0.001371
  6 C s       :     3.199883  s :     3.199883
      pz      :     0.959339  p :     2.867776
      px      :     0.970057
      py      :     0.938380
      dz2     :     0.024503  d :     0.098920
      dxz     :     0.017891
      dyz     :     0.028592
      dx2y2   :     0.012192
      dxy     :     0.015743
      f0      :     0.001817  f :     0.011946
      f+1     :     0.002121
      f-1     :     0.002795
      f+2     :     0.001630
      f-2     :     0.000814
      f+3     :     0.001326
      f-3     :     0.001441
  7 C s       :     3.178869  s :     3.178869
      pz      :     1.068218  p :     2.935050
      px      :     0.930238
      py      :     0.936594
      dz2     :     0.019196  d :     0.090567
      dxz     :     0.029126
      dyz     :     0.024877
      dx2y2   :     0.009452
      dxy     :     0.007916
      f0      :     0.005532  f :     0.019460
      f+1     :     0.004582
      f-1     :     0.004224
      f+2     :     0.002266
      f-2     :     0.002005
      f+3     :     0.000422
      f-3     :     0.000430
  8 N s       :     3.595043  s :     3.595043
      pz      :     1.246532  p :     3.360671
      px      :     1.048311
      py      :     1.065829
      dz2     :     0.017044  d :     0.067973
      dxz     :     0.018837
      dyz     :     0.018037
      dx2y2   :     0.007085
      dxy     :     0.006969
      f0      :     0.001165  f :     0.005134
      f+1     :     0.001049
      f-1     :     0.000961
      f+2     :     0.000677
      f-2     :     0.000642
      f+3     :     0.000319
      f-3     :     0.000320
  9 H s       :     0.872063  s :     0.872063
      pz      :     0.004964  p :     0.023563
      px      :     0.010261
      py      :     0.008338
 10 H s       :     0.829014  s :     0.829014
      pz      :     0.011828  p :     0.023748
      px      :     0.007042
      py      :     0.004878
 11 H s       :     0.818561  s :     0.818561
      pz      :     0.009828  p :     0.023783
      px      :     0.009109
      py      :     0.004846
 12 H s       :     0.826445  s :     0.826445
      pz      :     0.013930  p :     0.024152
      px      :     0.004448
      py      :     0.005774
 13 H s       :     0.844826  s :     0.844826
      pz      :     0.005050  p :     0.024459
      px      :     0.012265
      py      :     0.007144
 14 H s       :     0.836058  s :     0.836058
      pz      :     0.005139  p :     0.025328
      px      :     0.005326
      py      :     0.014863
 15 H s       :     0.819432  s :     0.819432
      pz      :     0.008609  p :     0.025293
      px      :     0.005808
      py      :     0.010876
 16 H s       :     0.826396  s :     0.826396
      pz      :     0.009072  p :     0.025363
      px      :     0.005507
      py      :     0.010784


                     *******************************
                     * LOEWDIN POPULATION ANALYSIS *
                     *******************************

----------------------
LOEWDIN ATOMIC CHARGES
----------------------
   0 C :   -0.333871
   1 N :    0.135294
   2 C :   -0.191134
   3 C :   -0.148411
   4 C :   -0.235412
   5 C :   -0.086192
   6 C :   -0.114099
   7 C :   -0.145049
   8 N :    0.080195
   9 H :    0.103443
  10 H :    0.123037
  11 H :    0.126854
  12 H :    0.135902
  13 H :    0.133995
  14 H :    0.134478
  15 H :    0.142531
  16 H :    0.138438

-------------------------------
LOEWDIN REDUCED ORBITAL CHARGES
-------------------------------
  0 C s       :     2.842442  s :     2.842442
      pz      :     1.088344  p :     3.072213
      px      :     1.066481
      py      :     0.917388
      dz2     :     0.058199  d :     0.374798
      dxz     :     0.051010
      dyz     :     0.063605
      dx2y2   :     0.080772
      dxy     :     0.121211
      f0      :     0.004098  f :     0.044418
      f+1     :     0.004115
      f-1     :     0.006303
      f+2     :     0.006671
      f-2     :     0.002499
      f+3     :     0.008867
      f-3     :     0.011865
  1 N s       :     3.024379  s :     3.024379
      pz      :     1.018568  p :     3.534924
      px      :     1.315921
      py      :     1.200434
      dz2     :     0.043974  d :     0.282589
      dxz     :     0.058892
      dyz     :     0.057740
      dx2y2   :     0.070640
      dxy     :     0.051343
      f0      :     0.002780  f :     0.022814
      f+1     :     0.003430
      f-1     :     0.002009
      f+2     :     0.004806
      f-2     :     0.003215
      f+3     :     0.003753
      f-3     :     0.002822
  2 C s       :     2.750196  s :     2.750196
      pz      :     0.956172  p :     2.797693
      px      :     0.878346
      py      :     0.963174
      dz2     :     0.157103  d :     0.566148
      dxz     :     0.097844
      dyz     :     0.094203
      dx2y2   :     0.126389
      dxy     :     0.090608
      f0      :     0.010939  f :     0.077098
      f+1     :     0.013213
      f-1     :     0.006874
      f+2     :     0.014627
      f-2     :     0.011178
      f+3     :     0.012276
      f-3     :     0.007990
  3 C s       :     2.795736  s :     2.795736
      pz      :     0.927799  p :     2.919428
      px      :     0.970261
      py      :     1.021367
      dz2     :     0.077898  d :     0.389767
      dxz     :     0.079656
      dyz     :     0.048183
      dx2y2   :     0.108760
      dxy     :     0.075269
      f0      :     0.005335  f :     0.043481
      f+1     :     0.007635
      f-1     :     0.004511
      f+2     :     0.007770
      f-2     :     0.007925
      f+3     :     0.004737
      f-3     :     0.005568
  4 C s       :     2.692390  s :     2.692390
      pz      :     0.898110  p :     2.752970
      px      :     0.906358
      py      :     0.948502
      dz2     :     0.193941  d :     0.700023
      dxz     :     0.152435
      dyz     :     0.128488
      dx2y2   :     0.132022
      dxy     :     0.093138
      f0      :     0.014138  f :     0.090028
      f+1     :     0.016659
      f-1     :     0.011958
      f+2     :     0.017212
      f-2     :     0.013052
      f+3     :     0.010247
      f-3     :     0.006761
  5 C s       :     2.777700  s :     2.777700
      pz      :     1.052958  p :     2.872520
      px      :     0.895570
      py      :     0.923991
      dz2     :     0.089972  d :     0.384162
      dxz     :     0.046796
      dyz     :     0.151701
      dx2y2   :     0.044953
      dxy     :     0.050740
      f0      :     0.010327  f :     0.051810
      f+1     :     0.008315
      f-1     :     0.015850
      f+2     :     0.004172
      f-2     :     0.002478
      f+3     :     0.005423
      f-3     :     0.005243
  6 C s       :     2.780041  s :     2.780041
      pz      :     1.057514  p :     2.892608
      px      :     0.881844
      py      :     0.953251
      dz2     :     0.093141  d :     0.389071
      dxz     :     0.044377
      dyz     :     0.153653
      dx2y2   :     0.046228
      dxy     :     0.051671
      f0      :     0.010967  f :     0.052379
      f+1     :     0.008562
      f-1     :     0.015487
      f+2     :     0.004496
      f-2     :     0.001889
      f+3     :     0.005534
      f-3     :     0.005444
  7 C s       :     2.820282  s :     2.820282
      pz      :     1.106221  p :     2.826555
      px      :     0.853554
      py      :     0.866780
      dz2     :     0.148545  d :     0.430927
      dxz     :     0.115364
      dyz     :     0.123398
      dx2y2   :     0.024829
      dxy     :     0.018791
      f0      :     0.021355  f :     0.067285
      f+1     :     0.015323
      f-1     :     0.017251
      f+2     :     0.006090
      f-2     :     0.005926
      f+3     :     0.000667
      f-3     :     0.000672
  8 N s       :     3.298096  s :     3.298096
      pz      :     1.405491  p :     3.463412
      px      :     1.013446
      py      :     1.044474
      dz2     :     0.047216  d :     0.138344
      dxz     :     0.035067
      dyz     :     0.037617
      dx2y2   :     0.009199
      dxy     :     0.009245
      f0      :     0.005989  f :     0.019953
      f+1     :     0.004370
      f-1     :     0.005063
      f+2     :     0.001855
      f-2     :     0.001893
      f+3     :     0.000391
      f-3     :     0.000392
  9 H s       :     0.829387  s :     0.829387
      pz      :     0.014435  p :     0.067170
      px      :     0.030392
      py      :     0.022342
 10 H s       :     0.811475  s :     0.811475
      pz      :     0.033587  p :     0.065488
      px      :     0.019508
      py      :     0.012393
 11 H s       :     0.807063  s :     0.807063
      pz      :     0.028127  p :     0.066083
      px      :     0.025563
      py      :     0.012393
 12 H s       :     0.798504  s :     0.798504
      pz      :     0.037948  p :     0.065593
      px      :     0.012086
      py      :     0.015560
 13 H s       :     0.798932  s :     0.798932
      pz      :     0.013782  p :     0.067073
      px      :     0.032497
      py      :     0.020793
 14 H s       :     0.797715  s :     0.797715
      pz      :     0.013962  p :     0.067807
      px      :     0.013739
      py      :     0.040106
 15 H s       :     0.789036  s :     0.789036
      pz      :     0.022826  p :     0.068433
      px      :     0.015840
      py      :     0.029767
 16 H s       :     0.793796  s :     0.793796
      pz      :     0.023765  p :     0.067765
      px      :     0.014760
      py      :     0.029241


                      *****************************
                      * MAYER POPULATION ANALYSIS *
                      *****************************

  NA   - Mulliken gross atomic population
  ZA   - Total nuclear charge
  QA   - Mulliken gross atomic charge
  VA   - Mayer's total valence
  BVA  - Mayer's bonded valence
  FA   - Mayer's free valence

  ATOM       NA         ZA         QA         VA         BVA        FA
  0 C      6.3405     6.0000    -0.3405     4.0279     3.7269     0.3010
  1 N      7.1856     7.0000    -0.1856     3.0878     2.6467     0.4411
  2 C      6.0286     6.0000    -0.0286     4.0371     3.6958     0.3413
  3 C      6.2157     6.0000    -0.2157     4.0076     3.6710     0.3365
  4 C      5.6920     6.0000     0.3080     3.8476     3.4886     0.3590
  5 C      6.2377     6.0000    -0.2377     4.0926     3.7062     0.3864
  6 C      6.1785     6.0000    -0.1785     3.9872     3.6074     0.3798
  7 C      6.2239     6.0000    -0.2239     4.1636     3.7357     0.4279
  8 N      7.0288     7.0000    -0.0288     3.4053     2.9333     0.4719
  9 H      0.8956     1.0000     0.1044     0.9658     0.9143     0.0515
 10 H      0.8528     1.0000     0.1472     0.9681     0.9201     0.0481
 11 H      0.8423     1.0000     0.1577     0.9718     0.9240     0.0478
 12 H      0.8506     1.0000     0.1494     0.9674     0.9192     0.0482
 13 H      0.8693     1.0000     0.1307     0.9877     0.9378     0.0499
 14 H      0.8614     1.0000     0.1386     0.9704     0.9212     0.0491
 15 H      0.8447     1.0000     0.1553     0.9832     0.9361     0.0471
 16 H      0.8518     1.0000     0.1482     0.9842     0.9377     0.0465

  Mayer bond orders larger than 0.1
B(  0-C ,  1-N ) :   0.8982 B(  0-C ,  9-H ) :   0.9151 B(  0-C , 10-H ) :   0.9345 
B(  0-C , 11-H ) :   0.9323 B(  1-N ,  2-C ) :   0.8801 B(  1-N ,  4-C ) :   0.8434 
B(  2-C ,  3-C ) :   0.9511 B(  2-C ,  6-C ) :   0.9444 B(  2-C , 12-H ) :   0.9027 
B(  3-C ,  4-C ) :   0.8749 B(  3-C , 13-H ) :   0.9102 B(  3-C , 14-H ) :   0.9182 
B(  4-C ,  5-C ) :   0.9091 B(  4-C ,  7-C ) :   0.8574 B(  5-C ,  6-C ) :   1.7709 
B(  5-C , 15-H ) :   0.9263 B(  6-C , 16-H ) :   0.9270 B(  7-C ,  8-N ) :   2.8830 



-------
TIMINGS
-------

Total time                :  996.172 sec
Integral trafo            :    5.450 sec (  0.5%)
FC preparation            :    3.015 sec (  0.3%)
I/O of integrals          :    0.045 sec (  0.0%)
K(i,j) Operators          :    7.096 sec (  0.7%)
T(i,j) pair energies      :    0.647 sec (  0.1%)
V-calculation             :    0.017 sec (  0.0%)
V**(-1/2)                 :    0.102 sec (  0.0%)
Gamma(ia|P)               :    6.907 sec (  0.7%)
Gamma-Trafo               :    1.204 sec (  0.1%)
D(virtual)                :    2.645 sec (  0.3%)
D(internal)               :    2.354 sec (  0.2%)
W(virtual)                :    0.000 sec (  0.0%)
W(internal)               :    0.000 sec (  0.0%)
L(virtual)                :    9.134 sec (  0.9%)
L(internal)               :    0.152 sec (  0.0%)
G(D)                      :  103.947 sec ( 10.4%)
G(Z)                      :    0.000 sec (  0.0%)
Z-Vector Solution         :  852.852 sec ( 85.6%)
3-Index Derivative        :    0.000 sec (  0.0%)
2-Index Derivative        :    0.000 sec (  0.0%)
Separable Gradient (RIJ)  :    0.000 sec (  0.0%)
Separable Gradient (X)    :    0.000 sec (  0.0%)


---------------------------------------
MP2 TOTAL ENERGY:     -380.141650890 Eh
---------------------------------------

-------------------------   --------------------
FINAL SINGLE POINT ENERGY      -380.141650890122
-------------------------   --------------------


                            ***************************************
                            *     ORCA property calculations      *
                            ***************************************

                                    ---------------------
                                    Active property flags
                                    ---------------------
   (+) Dipole Moment


------------------------------------------------------------------------------
                       ORCA ELECTRIC PROPERTIES CALCULATION
------------------------------------------------------------------------------

Dipole Moment Calculation                       ... on
Quadrupole Moment Calculation                   ... off
Polarizability Calculation                      ... off
GBWName                                         ... dsgdb9nsd_081114.gbw
Electron density file                           ... dsgdb9nsd_081114.scfp.tmp

-------------
DIPOLE MOMENT
-------------
                                X             Y             Z
Electronic contribution:     -0.57114      -2.88823       4.76941
Nuclear contribution   :      1.35737       2.68989      -6.36603
                        -----------------------------------------
Total Dipole Moment    :      0.78624      -0.19834      -1.59662
                        -----------------------------------------
Magnitude (a.u.)       :      1.79072
Magnitude (Debye)      :      4.55166


                         *** MP2 UNRELAXED DENSITY ***

------------------------------------------------------------------------------
                       ORCA ELECTRIC PROPERTIES CALCULATION
------------------------------------------------------------------------------

Dipole Moment Calculation                       ... on
Quadrupole Moment Calculation                   ... off
Polarizability Calculation                      ... off
GBWName                                         ... dsgdb9nsd_081114.gbw
Electron density file                           ... dsgdb9nsd_081114.pmp2ur

-------------
DIPOLE MOMENT
-------------
                                X             Y             Z
Electronic contribution:     -0.59324      -2.87690       4.79826
Nuclear contribution   :      1.35737       2.68989      -6.36603
                        -----------------------------------------
Total Dipole Moment    :      0.76413      -0.18701      -1.56777
                        -----------------------------------------
Magnitude (a.u.)       :      1.75408
Magnitude (Debye)      :      4.45851


                           *** MP2 RELAXED DENSITY ***

------------------------------------------------------------------------------
                       ORCA ELECTRIC PROPERTIES CALCULATION
------------------------------------------------------------------------------

Dipole Moment Calculation                       ... on
Quadrupole Moment Calculation                   ... off
Polarizability Calculation                      ... off
GBWName                                         ... dsgdb9nsd_081114.gbw
Electron density file                           ... dsgdb9nsd_081114.pmp2re

-------------
DIPOLE MOMENT
-------------
                                X             Y             Z
Electronic contribution:     -0.64614      -2.83937       4.92955
Nuclear contribution   :      1.35737       2.68989      -6.36603
                        -----------------------------------------
Total Dipole Moment    :      0.71123      -0.14948      -1.43648
                        -----------------------------------------
Magnitude (a.u.)       :      1.60986
Magnitude (Debye)      :      4.09195


Timings for individual modules:

Sum of individual times         ...     1133.766 sec (=  18.896 min)
GTO integral calculation        ...        0.514 sec (=   0.009 min)   0.0 %
SCF iterations                  ...      136.405 sec (=   2.273 min)  12.0 %
MP2 module                      ...      996.847 sec (=  16.614 min)  87.9 %
                             ****ORCA TERMINATED NORMALLY****
TOTAL RUN TIME: 0 days 0 hours 18 minutes 54 seconds 233 msec
