
                                 *****************
                                 * O   R   C   A *
                                 *****************

           --- An Ab Initio, DFT and Semiempirical electronic structure package ---

                  #######################################################
                  #                        -***-                        #
                  #  Department of molecular theory and spectroscopy    #
                  #              Directorship: Frank Neese              #
                  # Max Planck Institute for Chemical Energy Conversion #
                  #                  D-45470 Muelheim/Ruhr              #
                  #                       Germany                       #
                  #                                                     #
                  #                  All rights reserved                #
                  #                        -***-                        #
                  #######################################################


                         Program Version 3.0.3 - RELEASE   -


 With contributions from (in alphabetic order):
   Ute Becker             : Parallelization
   Dmytro Bykov           : SCF Hessian
   Dmitry Ganyushin       : Spin-Orbit,Spin-Spin,Magnetic field MRCI
   Andreas Hansen         : Spin unrestricted coupled pair/coupled cluster methods
   Dimitrios Liakos       : Extrapolation schemes; parallel MDCI
   Robert Izsak           : Overlap fitted RIJCOSX, COSX-SCS-MP3
   Christian Kollmar      : KDIIS, OOCD, Brueckner-CCSD(T), CCSD density
   Simone Kossmann        : Meta GGA functionals, TD-DFT gradient, OOMP2, MP2 Hessian
   Taras Petrenko         : DFT Hessian,TD-DFT gradient, ASA and ECA modules, normal mode analysis, Resonance Raman, ABS, FL, XAS/XES, NRVS
   Christoph Reimann      : Effective Core Potentials
   Michael Roemelt        : Restricted open shell CIS
   Christoph Riplinger    : Improved optimizer, TS searches, QM/MM, DLPNO-CCSD
   Barbara Sandhoefer     : DKH picture change effects
   Igor Schapiro          : Molecular dynamics
   Kantharuban Sivalingam : CASSCF convergence, NEVPT2
   Boris Wezisla          : Elementary symmetry handling
   Frank Wennmohs         : Technical directorship


 We gratefully acknowledge several colleagues who have allowed us to
 interface, adapt or use parts of their codes:
   Stefan Grimme, W. Hujo, H. Kruse, T. Risthaus : VdW corrections, initial TS optimization,
                                                   DFT functionals, gCP
   Ed Valeev                                     : LibInt (2-el integral package), F12 methods
   Garnet Chan, S. Sharma, R. Olivares           : DMRG
   Ulf Ekstrom                                   : XCFun DFT Library
   Mihaly Kallay                                 : mrcc  (arbitrary order and MRCC methods)
   Andreas Klamt, Michael Diedenhofen            : otool_cosmo (COSMO solvation model)
   Frank Weinhold                                : gennbo (NPA and NBO analysis)
   Christopher J. Cramer and Donald G. Truhlar   : smd solvation model


 Your calculation uses the libint2 library for the computation of 2-el integrals
 For citations please refer to: http://libint.valeyev.net

 This ORCA versions uses:
   CBLAS   interface :  Fast vector & matrix operations
   LAPACKE interface :  Fast linear algebra routines
   SCALAPACK package :  Parallel linear algebra routines


Your calculation utilizes the basis: Ahlrichs-TZV
Cite in your paper:
H - Kr: A. Schaefer, H. Horn and R. Ahlrichs, J. Chem. Phys. 97, 2571 (1992).

The def2-TZV basis will be loaded
Cite in your paper:
 	F. Weigend, R. Ahlrichs, Phys. Chem. Chem. Phys. 2005, 7, 3297.

================================================================================
                                        WARNINGS
                       Please study these warnings very carefully!
================================================================================
Now building the actual basis set


INFO   : the flag for use of LIBINT has been found!

================================================================================
                                       INPUT FILE
================================================================================
NAME = dsgdb9nsd_122897.inp
|  1> ! RI-MP2 RIJK def2-TZVP def2-TZVP/C def2-TZVP/JK TIGHTSCF
|  2> % maxcore 2000
|  3> % mp2 density relaxed end
|  4> *xyz 0 1
|  5>  C        0.0411795859     1.5987234017     0.0177024761 
|  6>  C        0.0191781740     0.0678256122     0.0260704098 
|  7>  C       -1.3979206680    -0.5153244129     0.0011807299 
|  8>  C       -1.4251767698    -2.0471243529     0.0054602491 
|  9>  C       -2.8434467446    -2.6229992330    -0.0224200106 
| 10>  C       -2.8634872299    -4.1633574827     0.0227428814 
| 11>  O       -2.2024559119    -4.6762866948     1.1788144179 
| 12>  C       -4.2314129894    -4.6804502181    -0.0844841702 
| 13>  C       -5.3648596985    -5.0793173411    -0.1291412669 
| 14>  H        1.0652081377     1.9847888502     0.0357837373 
| 15>  H       -0.4487853175     1.9966397567    -0.8780248539 
| 16>  H       -0.4837598964     2.0072069324     0.8885826095 
| 17>  H        0.5810675790    -0.3117361324    -0.8376715048 
| 18>  H        0.5462777834    -0.3027810290     0.9150839771 
| 19>  H       -1.9597714977    -0.1381680754     0.8674850177 
| 20>  H       -1.9281426889    -0.1415557073    -0.8861770431 
| 21>  H       -0.8657299848    -2.4236547028    -0.8625761553 
| 22>  H       -0.9047048766    -2.4289323387     0.8909064814 
| 23>  H       -3.4256253572    -2.2445542633     0.8287529838 
| 24>  H       -3.3723460063    -2.2973267376    -0.9265719447 
| 25>  H       -2.2730840755    -4.5441572324    -0.8205977426 
| 26>  H       -2.7853046345    -4.5278962423     1.9320025055 
| 27>  H       -6.3597280128    -5.4472639563    -0.1833868446 
| 28> *
| 29> 
| 30>                          ****END OF INPUT****
================================================================================

                       ****************************
                       * Single Point Calculation *
                       ****************************

---------------------------------
CARTESIAN COORDINATES (ANGSTROEM)
---------------------------------
  C      0.041180    1.598723    0.017702
  C      0.019178    0.067826    0.026070
  C     -1.397921   -0.515324    0.001181
  C     -1.425177   -2.047124    0.005460
  C     -2.843447   -2.622999   -0.022420
  C     -2.863487   -4.163357    0.022743
  O     -2.202456   -4.676287    1.178814
  C     -4.231413   -4.680450   -0.084484
  C     -5.364860   -5.079317   -0.129141
  H      1.065208    1.984789    0.035784
  H     -0.448785    1.996640   -0.878025
  H     -0.483760    2.007207    0.888583
  H      0.581068   -0.311736   -0.837672
  H      0.546278   -0.302781    0.915084
  H     -1.959771   -0.138168    0.867485
  H     -1.928143   -0.141556   -0.886177
  H     -0.865730   -2.423655   -0.862576
  H     -0.904705   -2.428932    0.890906
  H     -3.425625   -2.244554    0.828753
  H     -3.372346   -2.297327   -0.926572
  H     -2.273084   -4.544157   -0.820598
  H     -2.785305   -4.527896    1.932003
  H     -6.359728   -5.447264   -0.183387

----------------------------
CARTESIAN COORDINATES (A.U.)
----------------------------
  NO LB      ZA    FRAG    MASS        X           Y           Z
   0 C     6.0000    0    12.011          0.077818139659285          3.021149393103973          0.033452831721286
   1 C     6.0000    0    12.011          0.036241496608689          0.128171831923548          0.049265934721097
   2 C     6.0000    0    12.011         -2.641687219468253         -0.973822010504756          0.002231256149132
   3 C     6.0000    0    12.011         -2.693193787348532         -3.868504389061761          0.010318375421990
   4 C     6.0000    0    12.011         -5.373335623683927         -4.956750199855498         -0.042367679953611
   5 C     6.0000    0    12.011         -5.411206652491801         -7.867605439914787          0.042977817342252
   6 O     8.0000    0    15.999         -4.162038495526792         -8.836901176871791          2.227636412548798
   7 C     6.0000    0    12.011         -7.996211709483028         -8.844769095660991         -0.159651944329591
   8 C     6.0000    0    12.011        -10.138115577076338         -9.598518721956076         -0.244041627028629
   9 H     1.0000    0     1.008          2.012951655877277          3.750707360538452          0.067621463545183
  10 H     1.0000    0     1.008         -0.848081342999896          3.773102328262159         -1.659226512647219
  11 H     1.0000    0     1.008         -0.914173718770117          3.793071396344187          1.679177779320092
  12 H     1.0000    0     1.008          1.098058589610651         -0.589095916283815         -1.582969734261701
  13 H     1.0000    0     1.008          1.032315403671553         -0.572173223356868          1.729258106258466
  14 H     1.0000    0     1.008         -3.703431415717682         -0.261099822956982          1.639309108732830
  15 H     1.0000    0     1.008         -3.643661629143524         -0.267501519490517         -1.674631917627129
  16 H     1.0000    0     1.008         -1.635992577195808         -4.580043631482305         -1.630032703167726
  17 H     1.0000    0     1.008         -1.709644448797021         -4.590016917967856          1.683569260781407
  18 H     1.0000    0     1.008         -6.473493762524162         -4.241592850362372          1.566116172052076
  19 H     1.0000    0     1.008         -6.372810380730072         -4.341318374198770         -1.750967218857827
  20 H     1.0000    0     1.008         -4.295506382072578         -8.587212678713547         -1.550704999628004
  21 H     1.0000    0     1.008         -5.263462958746630         -8.556483860758142          3.650955625444687
  22 H     1.0000    0     1.008        -12.018144230419228        -10.293837056587380         -0.346550912857975

--------------------------------
INTERNAL COORDINATES (ANGSTROEM)
--------------------------------
 C      0   0   0   0.000000     0.000     0.000
 C      1   0   0   1.531079     0.000     0.000
 C      2   1   0   1.532597   113.182     0.000
 C      3   2   1   1.532048   113.381   179.838
 C      4   3   2   1.530980   113.111   180.120
 C      5   4   3   1.541150   112.797   181.641
 O      6   5   4   1.427081   112.145    57.823
 C      6   5   4   1.466323   111.251   183.319
 C      8   6   5   1.202410   177.550   299.141
 H      1   2   3   1.094535   111.471   180.006
 H      1   2   3   1.095778   111.170   300.162
 H      1   2   3   1.095834   111.192    59.850
 H      2   1   3   1.098106   109.509   122.088
 H      2   1   3   1.097966   109.574   237.882
 H      3   2   1   1.099275   109.223   302.081
 H      3   2   1   1.099201   109.253    57.423
 H      4   3   2   1.099201   109.344   301.995
 H      4   3   2   1.095757   110.011    58.118
 H      5   4   3   1.098475   110.320   302.954
 H      5   4   3   1.096945   110.487    60.218
 H      6   5   4   1.097637   108.496   303.044
 H      7   6   5   0.963859   107.313    74.568
 H      9   8   6   1.062116   178.790   196.134

---------------------------
INTERNAL COORDINATES (A.U.)
---------------------------
 C      0   0   0   0.000000     0.000     0.000
 C      1   0   0   2.893320     0.000     0.000
 C      2   1   0   2.896188   113.182     0.000
 C      3   2   1   2.895152   113.381   179.838
 C      4   3   2   2.893132   113.111   180.120
 C      5   4   3   2.912352   112.797   181.641
 O      6   5   4   2.696792   112.145    57.823
 C      6   5   4   2.770949   111.251   183.319
 C      8   6   5   2.272226   177.550   299.141
 H      1   2   3   2.068372   111.471   180.006
 H      1   2   3   2.070721   111.170   300.162
 H      1   2   3   2.070826   111.192    59.850
 H      2   1   3   2.075120   109.509   122.088
 H      2   1   3   2.074854   109.574   237.882
 H      3   2   1   2.077329   109.223   302.081
 H      3   2   1   2.077188   109.253    57.423
 H      4   3   2   2.077189   109.344   301.995
 H      4   3   2   2.070681   110.011    58.118
 H      5   4   3   2.075817   110.320   302.954
 H      5   4   3   2.072925   110.487    60.218
 H      6   5   4   2.074234   108.496   303.044
 H      7   6   5   1.821430   107.313    74.568
 H      9   8   6   2.007108   178.790   196.134

---------------------
BASIS SET INFORMATION
---------------------
There are 3 groups of distinct atoms

 Group   1 Type C   : 11s6p2d1f contracted to 5s3p2d1f pattern {62111/411/11/1}
 Group   2 Type O   : 11s6p2d1f contracted to 5s3p2d1f pattern {62111/411/11/1}
 Group   3 Type H   : 5s1p contracted to 3s1p pattern {311/1}

Atom   0C    basis set group =>   1
Atom   1C    basis set group =>   1
Atom   2C    basis set group =>   1
Atom   3C    basis set group =>   1
Atom   4C    basis set group =>   1
Atom   5C    basis set group =>   1
Atom   6O    basis set group =>   2
Atom   7C    basis set group =>   1
Atom   8C    basis set group =>   1
Atom   9H    basis set group =>   3
Atom  10H    basis set group =>   3
Atom  11H    basis set group =>   3
Atom  12H    basis set group =>   3
Atom  13H    basis set group =>   3
Atom  14H    basis set group =>   3
Atom  15H    basis set group =>   3
Atom  16H    basis set group =>   3
Atom  17H    basis set group =>   3
Atom  18H    basis set group =>   3
Atom  19H    basis set group =>   3
Atom  20H    basis set group =>   3
Atom  21H    basis set group =>   3
Atom  22H    basis set group =>   3
-------------------------------
AUXILIARY BASIS SET INFORMATION
-------------------------------
There are 3 groups of distinct atoms

 Group   1 Type C   : 14s10p6d2f1g contracted to 10s8p5d1f1g pattern {5111111111/31111111/21111/2/1}
 Group   2 Type O   : 14s10p6d2f1g contracted to 10s8p4d2f1g pattern {5111111111/31111111/3111/11/1}
 Group   3 Type H   : 4s2p2d contracted to 2s2p2d pattern {31/11/11}

Atom   0C    basis set group =>   1
Atom   1C    basis set group =>   1
Atom   2C    basis set group =>   1
Atom   3C    basis set group =>   1
Atom   4C    basis set group =>   1
Atom   5C    basis set group =>   1
Atom   6O    basis set group =>   2
Atom   7C    basis set group =>   1
Atom   8C    basis set group =>   1
Atom   9H    basis set group =>   3
Atom  10H    basis set group =>   3
Atom  11H    basis set group =>   3
Atom  12H    basis set group =>   3
Atom  13H    basis set group =>   3
Atom  14H    basis set group =>   3
Atom  15H    basis set group =>   3
Atom  16H    basis set group =>   3
Atom  17H    basis set group =>   3
Atom  18H    basis set group =>   3
Atom  19H    basis set group =>   3
Atom  20H    basis set group =>   3
Atom  21H    basis set group =>   3
Atom  22H    basis set group =>   3
------------------------------------------------------------------------------
                           ORCA GTO INTEGRAL CALCULATION
                           -- RI-GTO INTEGRALS CHOSEN --
------------------------------------------------------------------------------

                         BASIS SET STATISTICS AND STARTUP INFO

Gaussian basis set:
 # of primitive gaussian shells          ...  264
 # of primitive gaussian functions       ...  526
 # of contracted shells                  ...  155
 # of contracted basis functions         ...  363
 Highest angular momentum                ...    3
 Maximum contraction depth               ...    6
Auxiliary gaussian basis set:
 # of primitive gaussian shells          ...  409
 # of primitive gaussian functions       ... 1153
 # of contracted shells                  ...  309
 # of contracted aux-basis functions     ...  929
 Highest angular momentum                ...    4
 Maximum contraction depth               ...    5
Ratio of auxiliary to basis functions    ...  2.56
Integral package used                  ... LIBINT
 One Electron integrals                  ... done
 Ordering auxiliary basis shells         ... done
 Integral threshhold             Thresh  ...  2.500e-11
 Primitive cut-off               TCut    ...  2.500e-12
 Pre-screening matrix                    ... done
 Shell pair data                         ... 
 Ordering of the shell pairs             ... done (   0.002 sec) 9942 of 12090 pairs
 Determination of significant pairs      ... done (   0.000 sec)
 Creation of shell pair data             ... done (   0.002 sec)
 Storage of shell pair data              ... done (   0.002 sec)
 Shell pair data done in (   0.007 sec)
 Computing two index integrals           ... done
 Cholesky decomposition of the V-matrix  ... done


Timings:
 Total evaluation time                   ...   0.459 sec (  0.008 min)
 One electron matrix time                ...   0.110 sec (  0.002 min) = 24.0%
 Schwartz matrix evaluation time         ...   0.243 sec (  0.004 min) = 52.8%
 Two index repulsion integral time       ...   0.027 sec (  0.000 min) =  6.0%
 Cholesky decomposition of V             ...   0.044 sec (  0.001 min) =  9.6%
 Three index repulsion integral time     ...   0.000 sec (  0.000 min) =  0.0%

-------------------------------------------------------------------------------
                                 ORCA SCF
-------------------------------------------------------------------------------

------------
SCF SETTINGS
------------
Hamiltonian:
 Ab initio Hamiltonian  Method          .... Hartree-Fock(GTOs)
 RI-approximation to the Coulomb term is turned on
   Number of auxiliary basis functions  .... 929
   RI-JK (J+K treated both via RI)      .... on


General Settings:
 Integral files         IntName         .... dsgdb9nsd_122897
 Hartree-Fock type      HFTyp           .... RHF
 Total Charge           Charge          ....    0
 Multiplicity           Mult            ....    1
 Number of Electrons    NEL             ....   70
 Basis Dimension        Dim             ....  363
 Nuclear Repulsion      ENuc            ....    421.4238353882 Eh

Convergence Acceleration:
 DIIS                   CNVDIIS         .... on
   Start iteration      DIISMaxIt       ....    12
   Startup error        DIISStart       ....  0.200000
   # of expansion vecs  DIISMaxEq       ....     5
   Bias factor          DIISBfac        ....   1.050
   Max. coefficient     DIISMaxC        ....  10.000
 Newton-Raphson         CNVNR           .... off
 SOSCF                  CNVSOSCF        .... on
   Start iteration      SOSCFMaxIt      ....   150
   Startup grad/error   SOSCFStart      ....  0.003300
 Level Shifting         CNVShift        .... on
   Level shift para.    LevelShift      ....    0.2500
   Turn off err/grad.   ShiftErr        ....    0.0010
 Zerner damping         CNVZerner       .... off
 Static damping         CNVDamp         .... on
   Fraction old density DampFac         ....    0.7000
   Max. Damping (<1)    DampMax         ....    0.9800
   Min. Damping (>=0)   DampMin         ....    0.0000
   Turn off err/grad.   DampErr         ....    0.1000
 Fernandez-Rico         CNVRico         .... off

SCF Procedure:
 Maximum # iterations   MaxIter         ....   125
 SCF integral mode      SCFMode         .... Direct
   Integral package                     .... LIBINT
 Reset frequeny         DirectResetFreq ....    20
 Integral Threshold     Thresh          ....  2.500e-11 Eh
 Primitive CutOff       TCut            ....  2.500e-12 Eh

Convergence Tolerance:
 Convergence Check Mode ConvCheckMode   .... Total+1el-Energy
 Energy Change          TolE            ....  1.000e-08 Eh
 1-El. energy change                    ....  1.000e-05 Eh
 Orbital Gradient       TolG            ....  1.000e-05
 Orbital Rotation angle TolX            ....  1.000e-05
 DIIS Error             TolErr          ....  5.000e-07


Diagonalization of the overlap matrix:
Smallest eigenvalue                        ... 1.697e-05
Time for diagonalization                   ...    0.041 sec
Threshold for overlap eigenvalues          ... 1.000e-08
Number of eigenvalues below threshold      ... 0
Time for construction of square roots      ...    0.024 sec
Total time needed                          ...    0.065 sec

-------------------
DFT GRID GENERATION
-------------------

General Integration Accuracy     IntAcc      ...  4.340
Radial Grid Type                 RadialGrid  ... Gauss-Chebyshev
Angular Grid (max. acc.)         AngularGrid ... Lebedev-110
Angular grid pruning method      GridPruning ... 3 (G Style)
Weight generation scheme         WeightScheme... Becke
Basis function cutoff            BFCut       ...    1.0000e-11
Integration weight cutoff        WCut        ...    1.0000e-14
Grids for H and He will be reduced by one unit

# of grid points (after initial pruning)     ...  26080 (   0.0 sec)
# of grid points (after weights+screening)   ...  24008 (   0.2 sec)
nearest neighbour list constructed           ...    0.0 sec
Grid point re-assignment to atoms done       ...    0.0 sec
Grid point division into batches done        ...    0.0 sec
Reduced shell lists constructed in    1.7 sec

Total number of grid points                  ...    24008
Total number of batches                      ...      387
Average number of points per batch           ...       62
Average number of grid points per atom       ...     1044
Average number of shells per batch           ...    91.51 (59.04%)
Average number of basis functions per batch  ...   212.96 (58.67%)
Average number of large shells per batch     ...    68.09 (74.41%)
Average number of large basis fcns per batch ...   158.46 (74.41%)
Average number of aux-shells per batch       ...    91.51 (29.61%)
Average number of aux functions per batch    ...   212.96 (  inf%)
Maximum spatial batch extension              ...  22.20, 21.07, 25.62 au
Average spatial batch extension              ...   3.61,  3.68,  3.86 au

Time for grid setup =    1.885 sec

------------------------------
INITIAL GUESS: MODEL POTENTIAL
------------------------------
Loading Hartree-Fock densities                     ... done
Calculating cut-offs                               ... done
Setting up the integral package                    ... done
Initializing the effective Hamiltonian             ... done
Starting the Coulomb interaction                   ... done (   0.8 sec)
Reading the grid                                   ... done
Mapping shells                                     ... done
Starting the XC term evaluation                    ... done (   0.7 sec)
Transforming the Hamiltonian                       ... done (   0.0 sec)
Diagonalizing the Hamiltonian                      ... done (   0.1 sec)
Back transforming the eigenvectors                 ... done (   0.0 sec)
Now organizing SCF variables                       ... done
                      ------------------
                      INITIAL GUESS DONE (   3.6 sec)
                      ------------------
--------------
SCF ITERATIONS
--------------
ITER       Energy         Delta-E        Max-DP      RMS-DP      [F,P]     Damp
  0   -385.5440496630   0.000000000000 0.10768729  0.00113764  0.2890825 0.7000
  1   -385.3740762246   0.169973438384 0.09664996  0.00113310  0.2475148 0.7000
                               ***Turning on DIIS***
  2   -385.4309849227  -0.056908698094 0.04754557  0.00077884  0.1847997 0.7000
  3   -386.8151491153  -1.384164192574 0.02641819  0.00044227  0.1312115 0.7000
  4   -385.9651190173   0.850030097942 0.08552232  0.00114926  0.0855933 0.0000
  5   -385.9184698050   0.046649212369 0.01544002  0.00024284  0.0225390 0.0000
  6   -385.8871691131   0.031300691876 0.00685018  0.00012017  0.0165431 0.0000
  7   -385.9185408219  -0.031371708841 0.00289563  0.00006876  0.0076291 0.0000
  8   -385.9251833329  -0.006642510967 0.00182021  0.00005153  0.0049762 0.0000
                      *** Initiating the SOSCF procedure ***
                           *** Shutting down DIIS ***
                      *** Re-Reading the Fockian *** 
                      *** Removing any level shift *** 
ITER      Energy       Delta-E        Grad      Rot      Max-DP    RMS-DP
  9   -386.02824642  -0.1030630886  0.000161  0.000161  0.001457  0.000019
 10   -386.03410859  -0.0058621720  0.000064  0.000110  0.000238  0.000004
 11   -386.03410871  -0.0000001141  0.000051  0.000054  0.000171  0.000002
 12   -386.03410878  -0.0000000720  0.000012  0.000023  0.000040  0.000001
 13   -386.03410878  -0.0000000050  0.000006  0.000022  0.000014  0.000000
 14   -386.03410879  -0.0000000019  0.000003  0.000008  0.000017  0.000000
                  ***Gradient check signals convergence***
              ***Rediagonalizing the Fockian in SOSCF/NRSCF***

               *****************************************************
               *                     SUCCESS                       *
               *           SCF CONVERGED AFTER  15 CYCLES          *
               *****************************************************


----------------
TOTAL SCF ENERGY
----------------

Total Energy       :         -386.03410879 Eh          -10504.52214 eV

Components:
Nuclear Repulsion  :          421.42383539 Eh           11467.52556 eV
Electronic Energy  :         -807.45794418 Eh          -21972.04770 eV

One Electron Energy:        -1358.49662650 Eh          -36966.57255 eV
Two Electron Energy:          551.03868232 Eh           14994.52485 eV

Virial components:
Potential Energy   :         -771.56098646 Eh          -20995.24182 eV
Kinetic Energy     :          385.52687767 Eh           10490.71968 eV
Virial Ratio       :            2.00131568


---------------
SCF CONVERGENCE
---------------

  Last Energy change         ...   -4.1109e-10  Tolerance :   1.0000e-08
  Last MAX-Density change    ...    6.6026e-06  Tolerance :   1.0000e-07
  Last RMS-Density change    ...    1.0707e-07  Tolerance :   5.0000e-09
  Last Orbital Gradient      ...    7.9398e-07  Tolerance :   1.0000e-05
  Last Orbital Rotation      ...    1.9728e-06  Tolerance :   1.0000e-05

             **** THE GBW FILE WAS UPDATED (dsgdb9nsd_122897.gbw) ****
             **** DENSITY FILE WAS UPDATED (dsgdb9nsd_122897.scfp.tmp) ****
             **** ENERGY FILE WAS UPDATED (dsgdb9nsd_122897.en.tmp) ****
----------------
ORBITAL ENERGIES
----------------

  NO   OCC          E(Eh)            E(eV) 
   0   2.0000     -20.564027      -559.5756 
   1   2.0000     -11.309626      -307.7506 
   2   2.0000     -11.237542      -305.7891 
   3   2.0000     -11.231305      -305.6193 
   4   2.0000     -11.229779      -305.5778 
   5   2.0000     -11.218689      -305.2761 
   6   2.0000     -11.218230      -305.2636 
   7   2.0000     -11.217719      -305.2496 
   8   2.0000     -11.211715      -305.0863 
   9   2.0000      -1.370911       -37.3044 
  10   2.0000      -1.091820       -29.7099 
  11   2.0000      -1.060069       -28.8459 
  12   2.0000      -1.021152       -27.7870 
  13   2.0000      -0.960793       -26.1445 
  14   2.0000      -0.887799       -24.1582 
  15   2.0000      -0.816344       -22.2139 
  16   2.0000      -0.790867       -21.5206 
  17   2.0000      -0.746011       -20.3000 
  18   2.0000      -0.692192       -18.8355 
  19   2.0000      -0.662669       -18.0322 
  20   2.0000      -0.631359       -17.1801 
  21   2.0000      -0.629533       -17.1305 
  22   2.0000      -0.583036       -15.8652 
  23   2.0000      -0.575623       -15.6635 
  24   2.0000      -0.564607       -15.3637 
  25   2.0000      -0.536042       -14.5865 
  26   2.0000      -0.524138       -14.2625 
  27   2.0000      -0.497977       -13.5506 
  28   2.0000      -0.480603       -13.0779 
  29   2.0000      -0.478083       -13.0093 
  30   2.0000      -0.464456       -12.6385 
  31   2.0000      -0.462497       -12.5852 
  32   2.0000      -0.450889       -12.2693 
  33   2.0000      -0.400868       -10.9082 
  34   2.0000      -0.390646       -10.6300 
  35   0.0000       0.129748         3.5306 
  36   0.0000       0.141796         3.8585 
  37   0.0000       0.157931         4.2975 
  38   0.0000       0.163871         4.4592 
  39   0.0000       0.165194         4.4952 
  40   0.0000       0.174473         4.7477 
  41   0.0000       0.180175         4.9028 
  42   0.0000       0.184663         5.0249 
  43   0.0000       0.194101         5.2818 
  44   0.0000       0.213633         5.8132 
  45   0.0000       0.222563         6.0563 
  46   0.0000       0.230064         6.2604 
  47   0.0000       0.236938         6.4474 
  48   0.0000       0.241769         6.5789 
  49   0.0000       0.255474         6.9518 
  50   0.0000       0.267989         7.2924 
  51   0.0000       0.274177         7.4607 
  52   0.0000       0.283957         7.7269 
  53   0.0000       0.288189         7.8420 
  54   0.0000       0.312776         8.5111 
  55   0.0000       0.325382         8.8541 
  56   0.0000       0.338547         9.2123 
  57   0.0000       0.345135         9.3916 
  58   0.0000       0.357871         9.7382 
  59   0.0000       0.371160        10.0998 
  60   0.0000       0.375733        10.2242 
  61   0.0000       0.399716        10.8768 
  62   0.0000       0.417098        11.3498 
  63   0.0000       0.427274        11.6267 
  64   0.0000       0.433977        11.8091 
  65   0.0000       0.437922        11.9165 
  66   0.0000       0.442670        12.0457 
  67   0.0000       0.458112        12.4659 
  68   0.0000       0.462939        12.5972 
  69   0.0000       0.474223        12.9043 
  70   0.0000       0.484959        13.1964 
  71   0.0000       0.503522        13.7015 
  72   0.0000       0.508560        13.8386 
  73   0.0000       0.526995        14.3403 
  74   0.0000       0.541775        14.7424 
  75   0.0000       0.545078        14.8323 
  76   0.0000       0.556611        15.1462 
  77   0.0000       0.563784        15.3413 
  78   0.0000       0.571262        15.5448 
  79   0.0000       0.579649        15.7731 
  80   0.0000       0.596767        16.2388 
  81   0.0000       0.601437        16.3659 
  82   0.0000       0.607873        16.5411 
  83   0.0000       0.619877        16.8677 
  84   0.0000       0.627888        17.0857 
  85   0.0000       0.634255        17.2589 
  86   0.0000       0.643990        17.5239 
  87   0.0000       0.655039        17.8245 
  88   0.0000       0.667165        18.1545 
  89   0.0000       0.672157        18.2903 
  90   0.0000       0.681225        18.5371 
  91   0.0000       0.692402        18.8412 
  92   0.0000       0.693469        18.8702 
  93   0.0000       0.705306        19.1924 
  94   0.0000       0.709842        19.3158 
  95   0.0000       0.715712        19.4755 
  96   0.0000       0.723809        19.6959 
  97   0.0000       0.761309        20.7163 
  98   0.0000       0.770069        20.9547 
  99   0.0000       0.778616        21.1872 
 100   0.0000       0.793523        21.5929 
 101   0.0000       0.808122        21.9901 
 102   0.0000       0.822115        22.3709 
 103   0.0000       0.834046        22.6955 
 104   0.0000       0.839616        22.8471 
 105   0.0000       0.851848        23.1800 
 106   0.0000       0.860964        23.4280 
 107   0.0000       0.904367        24.6091 
 108   0.0000       0.933618        25.4050 
 109   0.0000       0.939236        25.5579 
 110   0.0000       0.968048        26.3419 
 111   0.0000       0.994816        27.0703 
 112   0.0000       1.003712        27.3124 
 113   0.0000       1.024050        27.8658 
 114   0.0000       1.025104        27.8945 
 115   0.0000       1.037593        28.2343 
 116   0.0000       1.048906        28.5422 
 117   0.0000       1.070669        29.1344 
 118   0.0000       1.090360        29.6702 
 119   0.0000       1.096836        29.8464 
 120   0.0000       1.124303        30.5938 
 121   0.0000       1.140456        31.0334 
 122   0.0000       1.146478        31.1973 
 123   0.0000       1.195865        32.5411 
 124   0.0000       1.202948        32.7339 
 125   0.0000       1.205961        32.8159 
 126   0.0000       1.234076        33.5809 
 127   0.0000       1.246398        33.9162 
 128   0.0000       1.252547        34.0835 
 129   0.0000       1.273628        34.6572 
 130   0.0000       1.286385        35.0043 
 131   0.0000       1.309418        35.6311 
 132   0.0000       1.313072        35.7305 
 133   0.0000       1.333393        36.2835 
 134   0.0000       1.340262        36.4704 
 135   0.0000       1.344016        36.5725 
 136   0.0000       1.368530        37.2396 
 137   0.0000       1.378119        37.5005 
 138   0.0000       1.416801        38.5531 
 139   0.0000       1.466730        39.9117 
 140   0.0000       1.479796        40.2673 
 141   0.0000       1.509498        41.0755 
 142   0.0000       1.527510        41.5656 
 143   0.0000       1.541922        41.9578 
 144   0.0000       1.563950        42.5572 
 145   0.0000       1.583824        43.0980 
 146   0.0000       1.599522        43.5252 
 147   0.0000       1.652234        44.9596 
 148   0.0000       1.679235        45.6943 
 149   0.0000       1.740345        47.3572 
 150   0.0000       1.748616        47.5823 
 151   0.0000       1.769977        48.1635 
 152   0.0000       1.777875        48.3784 
 153   0.0000       1.783781        48.5391 
 154   0.0000       1.802360        49.0447 
 155   0.0000       1.806102        49.1465 
 156   0.0000       1.819025        49.4982 
 157   0.0000       1.839116        50.0449 
 158   0.0000       1.845286        50.2128 
 159   0.0000       1.846696        50.2511 
 160   0.0000       1.859167        50.5905 
 161   0.0000       1.868933        50.8562 
 162   0.0000       1.889436        51.4142 
 163   0.0000       1.897545        51.6348 
 164   0.0000       1.907844        51.9151 
 165   0.0000       1.914495        52.0961 
 166   0.0000       1.931259        52.5522 
 167   0.0000       1.960567        53.3497 
 168   0.0000       1.981934        53.9312 
 169   0.0000       2.004937        54.5571 
 170   0.0000       2.020776        54.9881 
 171   0.0000       2.022235        55.0278 
 172   0.0000       2.068679        56.2916 
 173   0.0000       2.074084        56.4387 
 174   0.0000       2.117512        57.6204 
 175   0.0000       2.120788        57.7096 
 176   0.0000       2.133058        58.0435 
 177   0.0000       2.136027        58.1243 
 178   0.0000       2.158716        58.7416 
 179   0.0000       2.183395        59.4132 
 180   0.0000       2.189290        59.5736 
 181   0.0000       2.214438        60.2579 
 182   0.0000       2.219955        60.4080 
 183   0.0000       2.220496        60.4228 
 184   0.0000       2.252105        61.2829 
 185   0.0000       2.256122        61.3922 
 186   0.0000       2.258320        61.4520 
 187   0.0000       2.282249        62.1031 
 188   0.0000       2.332974        63.4835 
 189   0.0000       2.360157        64.2231 
 190   0.0000       2.396255        65.2054 
 191   0.0000       2.420788        65.8730 
 192   0.0000       2.423712        65.9526 
 193   0.0000       2.426442        66.0268 
 194   0.0000       2.455485        66.8172 
 195   0.0000       2.487332        67.6837 
 196   0.0000       2.532481        68.9123 
 197   0.0000       2.555283        69.5328 
 198   0.0000       2.567136        69.8553 
 199   0.0000       2.578375        70.1612 
 200   0.0000       2.602825        70.8265 
 201   0.0000       2.613900        71.1278 
 202   0.0000       2.642088        71.8949 
 203   0.0000       2.646834        72.0240 
 204   0.0000       2.665003        72.5184 
 205   0.0000       2.673078        72.7382 
 206   0.0000       2.708477        73.7014 
 207   0.0000       2.721696        74.0611 
 208   0.0000       2.732019        74.3420 
 209   0.0000       2.753813        74.9351 
 210   0.0000       2.774396        75.4952 
 211   0.0000       2.776351        75.5484 
 212   0.0000       2.791468        75.9597 
 213   0.0000       2.793986        76.0282 
 214   0.0000       2.805776        76.3490 
 215   0.0000       2.824089        76.8474 
 216   0.0000       2.836944        77.1972 
 217   0.0000       2.841721        77.3271 
 218   0.0000       2.850662        77.5704 
 219   0.0000       2.856961        77.7419 
 220   0.0000       2.875055        78.2342 
 221   0.0000       2.887701        78.5783 
 222   0.0000       2.896322        78.8129 
 223   0.0000       2.903085        78.9970 
 224   0.0000       2.919751        79.4505 
 225   0.0000       2.930179        79.7342 
 226   0.0000       2.943593        80.0992 
 227   0.0000       2.952946        80.3538 
 228   0.0000       2.955958        80.4357 
 229   0.0000       2.973531        80.9139 
 230   0.0000       2.989027        81.3356 
 231   0.0000       3.013185        81.9929 
 232   0.0000       3.026203        82.3472 
 233   0.0000       3.030927        82.4757 
 234   0.0000       3.044734        82.8514 
 235   0.0000       3.057628        83.2023 
 236   0.0000       3.064469        83.3885 
 237   0.0000       3.071229        83.5724 
 238   0.0000       3.096250        84.2532 
 239   0.0000       3.108878        84.5969 
 240   0.0000       3.131044        85.2000 
 241   0.0000       3.141824        85.4934 
 242   0.0000       3.167063        86.1802 
 243   0.0000       3.180024        86.5329 
 244   0.0000       3.203299        87.1662 
 245   0.0000       3.239242        88.1442 
 246   0.0000       3.262283        88.7712 
 247   0.0000       3.281236        89.2870 
 248   0.0000       3.301664        89.8428 
 249   0.0000       3.310238        90.0761 
 250   0.0000       3.330739        90.6340 
 251   0.0000       3.342146        90.9444 
 252   0.0000       3.361282        91.4651 
 253   0.0000       3.367879        91.6446 
 254   0.0000       3.373239        91.7905 
 255   0.0000       3.386858        92.1611 
 256   0.0000       3.430202        93.3405 
 257   0.0000       3.434643        93.4614 
 258   0.0000       3.439809        93.6020 
 259   0.0000       3.467962        94.3680 
 260   0.0000       3.485918        94.8567 
 261   0.0000       3.504749        95.3691 
 262   0.0000       3.513867        95.6172 
 263   0.0000       3.525394        95.9309 
 264   0.0000       3.534770        96.1860 
 265   0.0000       3.541371        96.3656 
 266   0.0000       3.561672        96.9180 
 267   0.0000       3.581435        97.4558 
 268   0.0000       3.586671        97.5983 
 269   0.0000       3.605692        98.1159 
 270   0.0000       3.617243        98.4302 
 271   0.0000       3.631317        98.8132 
 272   0.0000       3.649868        99.3179 
 273   0.0000       3.654487        99.4436 
 274   0.0000       3.674536        99.9892 
 275   0.0000       3.690665       100.4281 
 276   0.0000       3.720848       101.2494 
 277   0.0000       3.723177       101.3128 
 278   0.0000       3.734999       101.6345 
 279   0.0000       3.747098       101.9637 
 280   0.0000       3.768920       102.5575 
 281   0.0000       3.776336       102.7593 
 282   0.0000       3.784108       102.9708 
 283   0.0000       3.803966       103.5112 
 284   0.0000       3.820007       103.9477 
 285   0.0000       3.837180       104.4150 
 286   0.0000       3.857294       104.9623 
 287   0.0000       3.863560       105.1328 
 288   0.0000       3.879933       105.5784 
 289   0.0000       3.917462       106.5996 
 290   0.0000       3.923298       106.7584 
 291   0.0000       3.934272       107.0570 
 292   0.0000       3.949448       107.4700 
 293   0.0000       3.953626       107.5836 
 294   0.0000       3.974196       108.1434 
 295   0.0000       3.985180       108.4423 
 296   0.0000       4.052470       110.2733 
 297   0.0000       4.093017       111.3767 
 298   0.0000       4.126828       112.2967 
 299   0.0000       4.167946       113.4156 
 300   0.0000       4.193327       114.1062 
 301   0.0000       4.221575       114.8749 
 302   0.0000       4.239510       115.3629 
 303   0.0000       4.254379       115.7675 
 304   0.0000       4.263977       116.0287 
 305   0.0000       4.275088       116.3310 
 306   0.0000       4.308220       117.2326 
 307   0.0000       4.328077       117.7730 
 308   0.0000       4.370446       118.9259 
 309   0.0000       4.391489       119.4985 
 310   0.0000       4.423343       120.3653 
 311   0.0000       4.452948       121.1709 
 312   0.0000       4.460260       121.3698 
 313   0.0000       4.493573       122.2763 
 314   0.0000       4.541952       123.5928 
 315   0.0000       4.593077       124.9840 
 316   0.0000       4.619442       125.7014 
 317   0.0000       4.652791       126.6089 
 318   0.0000       4.721623       128.4819 
 319   0.0000       4.738894       128.9519 
 320   0.0000       4.782844       130.1478 
 321   0.0000       4.842664       131.7756 
 322   0.0000       4.858398       132.2037 
 323   0.0000       4.878102       132.7399 
 324   0.0000       4.957076       134.8889 
 325   0.0000       4.966271       135.1391 
 326   0.0000       4.985293       135.6567 
 327   0.0000       4.986996       135.7031 
 328   0.0000       5.003439       136.1505 
 329   0.0000       5.012164       136.3879 
 330   0.0000       5.071106       137.9918 
 331   0.0000       5.083057       138.3170 
 332   0.0000       5.164337       140.5288 
 333   0.0000       5.178300       140.9087 
 334   0.0000       5.254235       142.9750 
 335   0.0000       5.302343       144.2841 
 336   0.0000       5.348220       145.5325 
 337   0.0000       5.389766       146.6630 
 338   0.0000       5.462499       148.6422 
 339   0.0000       5.603211       152.4711 
 340   0.0000       5.620560       152.9432 
 341   0.0000       5.745748       156.3498 
 342   0.0000       5.832042       158.6979 
 343   0.0000       5.964145       162.2926 
 344   0.0000       5.991366       163.0333 
 345   0.0000       6.216571       169.1615 
 346   0.0000       6.279701       170.8794 
 347   0.0000       6.412061       174.4810 
 348   0.0000       6.811968       185.3631 
 349   0.0000       7.012895       190.8306 
 350   0.0000       7.239641       197.0006 
 351   0.0000       7.366330       200.4480 
 352   0.0000       7.510161       204.3619 
 353   0.0000       7.670788       208.7328 
 354   0.0000      23.396769       636.6585 
 355   0.0000      23.458383       638.3351 
 356   0.0000      23.553886       640.9338 
 357   0.0000      23.583430       641.7378 
 358   0.0000      23.594698       642.0444 
 359   0.0000      23.680712       644.3849 
 360   0.0000      23.738674       645.9622 
 361   0.0000      24.705309       672.2656 
 362   0.0000      45.485373      1237.7199 

                    ********************************
                    * MULLIKEN POPULATION ANALYSIS *
                    ********************************

-----------------------
MULLIKEN ATOMIC CHARGES
-----------------------
   0 C :   -0.315479
   1 C :   -0.113787
   2 C :   -0.172352
   3 C :   -0.185132
   4 C :   -0.139029
   5 C :    0.026825
   6 O :   -0.534012
   7 C :   -0.142496
   8 C :   -0.031584
   9 H :    0.108974
  10 H :    0.095009
  11 H :    0.094958
  12 H :    0.076185
  13 H :    0.077652
  14 H :    0.078745
  15 H :    0.076776
  16 H :    0.077188
  17 H :    0.107073
  18 H :    0.085001
  19 H :    0.098655
  20 H :    0.098701
  21 H :    0.328518
  22 H :    0.203612
Sum of atomic charges:    0.0000000

--------------------------------
MULLIKEN REDUCED ORBITAL CHARGES
--------------------------------
  0 C s       :     3.217987  s :     3.217987
      pz      :     1.036437  p :     3.016699
      px      :     1.047972
      py      :     0.932290
      dz2     :     0.011442  d :     0.076218
      dxz     :     0.011687
      dyz     :     0.019650
      dx2y2   :     0.016000
      dxy     :     0.017439
      f0      :     0.000283  f :     0.004575
      f+1     :     0.001038
      f-1     :     0.000743
      f+2     :     0.000485
      f-2     :     0.000135
      f+3     :     0.000765
      f-3     :     0.001126
  1 C s       :     3.123598  s :     3.123598
      pz      :     1.004135  p :     2.872605
      px      :     0.931867
      py      :     0.936603
      dz2     :     0.012766  d :     0.110953
      dxz     :     0.027033
      dyz     :     0.019270
      dx2y2   :     0.025304
      dxy     :     0.026579
      f0      :     0.000540  f :     0.006631
      f+1     :     0.001155
      f-1     :     0.000830
      f+2     :     0.000830
      f-2     :     0.000334
      f+3     :     0.001453
      f-3     :     0.001490
  2 C s       :     3.144419  s :     3.144419
      pz      :     1.018028  p :     2.913336
      px      :     0.962764
      py      :     0.932545
      dz2     :     0.011610  d :     0.107971
      dxz     :     0.028937
      dyz     :     0.018685
      dx2y2   :     0.025043
      dxy     :     0.023697
      f0      :     0.000533  f :     0.006625
      f+1     :     0.001166
      f-1     :     0.000821
      f+2     :     0.000831
      f-2     :     0.000365
      f+3     :     0.001441
      f-3     :     0.001467
  3 C s       :     3.143695  s :     3.143695
      pz      :     1.033017  p :     2.928787
      px      :     0.947505
      py      :     0.948264
      dz2     :     0.011894  d :     0.106004
      dxz     :     0.026983
      dyz     :     0.019400
      dx2y2   :     0.024243
      dxy     :     0.023485
      f0      :     0.000539  f :     0.006646
      f+1     :     0.001162
      f-1     :     0.000850
      f+2     :     0.000818
      f-2     :     0.000364
      f+3     :     0.001439
      f-3     :     0.001474
  4 C s       :     3.097648  s :     3.097648
      pz      :     1.048761  p :     2.930465
      px      :     0.967453
      py      :     0.914252
      dz2     :     0.013213  d :     0.104344
      dxz     :     0.030430
      dyz     :     0.011732
      dx2y2   :     0.027373
      dxy     :     0.021596
      f0      :     0.000540  f :     0.006572
      f+1     :     0.001226
      f-1     :     0.000805
      f+2     :     0.000746
      f-2     :     0.000349
      f+3     :     0.001351
      f-3     :     0.001555
  5 C s       :     3.230357  s :     3.230357
      pz      :     0.812814  p :     2.555058
      px      :     0.838566
      py      :     0.903679
      dz2     :     0.030591  d :     0.175028
      dxz     :     0.040278
      dyz     :     0.038900
      dx2y2   :     0.037566
      dxy     :     0.027693
      f0      :     0.001935  f :     0.012733
      f+1     :     0.002111
      f-1     :     0.001868
      f+2     :     0.002238
      f-2     :     0.001399
      f+3     :     0.001558
      f-3     :     0.001623
  6 O s       :     3.803437  s :     3.803437
      pz      :     1.251767  p :     4.695318
      px      :     1.607028
      py      :     1.836523
      dz2     :     0.003441  d :     0.033455
      dxz     :     0.016440
      dyz     :     0.005376
      dx2y2   :     0.003886
      dxy     :     0.004312
      f0      :     0.000201  f :     0.001802
      f+1     :     0.000561
      f-1     :     0.000259
      f+2     :     0.000315
      f-2     :     0.000276
      f+3     :     0.000085
      f-3     :     0.000106
  7 C s       :     3.416710  s :     3.416710
      pz      :     0.975068  p :     2.613389
      px      :     0.758302
      py      :     0.880018
      dz2     :     0.008182  d :     0.100392
      dxz     :     0.028715
      dyz     :     0.002433
      dx2y2   :     0.026984
      dxy     :     0.034079
      f0      :     0.001601  f :     0.012006
      f+1     :     0.000989
      f-1     :     0.000355
      f+2     :     0.001819
      f-2     :     0.001103
      f+3     :     0.003699
      f-3     :     0.002440
  8 C s       :     2.987714  s :     2.987714
      pz      :     0.969426  p :     3.023289
      px      :     1.040897
      py      :     1.012966
      dz2     :    -0.002890  d :     0.012126
      dxz     :     0.010975
      dyz     :     0.001441
      dx2y2   :    -0.000462
      dxy     :     0.003061
      f0      :     0.001033  f :     0.008454
      f+1     :     0.000930
      f-1     :     0.000262
      f+2     :     0.001089
      f-2     :     0.000733
      f+3     :     0.002381
      f-3     :     0.002025
  9 H s       :     0.869326  s :     0.869326
      pz      :     0.003678  p :     0.021699
      px      :     0.012820
      py      :     0.005202
 10 H s       :     0.883514  s :     0.883514
      pz      :     0.010525  p :     0.021476
      px      :     0.005666
      py      :     0.005286
 11 H s       :     0.883568  s :     0.883568
      pz      :     0.010142  p :     0.021474
      px      :     0.005967
      py      :     0.005364
 12 H s       :     0.902110  s :     0.902110
      pz      :     0.009975  p :     0.021705
      px      :     0.006749
      py      :     0.004981
 13 H s       :     0.900620  s :     0.900620
      pz      :     0.010404  p :     0.021728
      px      :     0.006395
      py      :     0.004929
 14 H s       :     0.899639  s :     0.899639
      pz      :     0.009957  p :     0.021616
      px      :     0.006671
      py      :     0.004987
 15 H s       :     0.901601  s :     0.901601
      pz      :     0.010285  p :     0.021623
      px      :     0.006359
      py      :     0.004979
 16 H s       :     0.901143  s :     0.901143
      pz      :     0.009985  p :     0.021669
      px      :     0.006727
      py      :     0.004957
 17 H s       :     0.870725  s :     0.870725
      pz      :     0.010596  p :     0.022202
      px      :     0.006229
      py      :     0.005378
 18 H s       :     0.893028  s :     0.893028
      pz      :     0.009754  p :     0.021971
      px      :     0.007087
      py      :     0.005130
 19 H s       :     0.879235  s :     0.879235
      pz      :     0.010836  p :     0.022110
      px      :     0.006550
      py      :     0.004724
 20 H s       :     0.879061  s :     0.879061
      pz      :     0.010453  p :     0.022239
      px      :     0.006783
      py      :     0.005003
 21 H s       :     0.625803  s :     0.625803
      pz      :     0.017100  p :     0.045679
      px      :     0.014045
      py      :     0.014535
 22 H s       :     0.771976  s :     0.771976
      pz      :     0.003446  p :     0.024411
      px      :     0.015642
      py      :     0.005324


                     *******************************
                     * LOEWDIN POPULATION ANALYSIS *
                     *******************************

----------------------
LOEWDIN ATOMIC CHARGES
----------------------
   0 C :   -0.291060
   1 C :   -0.274488
   2 C :   -0.251104
   3 C :   -0.244664
   4 C :   -0.217470
   5 C :   -0.299269
   6 O :   -0.038846
   7 C :   -0.093385
   8 C :   -0.095079
   9 H :    0.109082
  10 H :    0.108722
  11 H :    0.108733
  12 H :    0.123102
  13 H :    0.123548
  14 H :    0.124997
  15 H :    0.124666
  16 H :    0.126745
  17 H :    0.131758
  18 H :    0.130518
  19 H :    0.135748
  20 H :    0.153549
  21 H :    0.178687
  22 H :    0.125511

-------------------------------
LOEWDIN REDUCED ORBITAL CHARGES
-------------------------------
  0 C s       :     2.830083  s :     2.830083
      pz      :     1.057478  p :     3.153219
      px      :     1.055582
      py      :     1.040159
      dz2     :     0.041031  d :     0.282908
      dxz     :     0.034036
      dyz     :     0.076147
      dx2y2   :     0.057538
      dxy     :     0.074156
      f0      :     0.002110  f :     0.024851
      f+1     :     0.003270
      f-1     :     0.003482
      f+2     :     0.003612
      f-2     :     0.002657
      f+3     :     0.005482
      f-3     :     0.004238
  1 C s       :     2.778344  s :     2.778344
      pz      :     1.014251  p :     3.041620
      px      :     1.010831
      py      :     1.016538
      dz2     :     0.047646  d :     0.415944
      dxz     :     0.096287
      dyz     :     0.072559
      dx2y2   :     0.098056
      dxy     :     0.101397
      f0      :     0.003939  f :     0.038580
      f+1     :     0.004213
      f-1     :     0.003811
      f+2     :     0.005552
      f-2     :     0.004654
      f+3     :     0.010174
      f-3     :     0.006238
  2 C s       :     2.774849  s :     2.774849
      pz      :     1.011012  p :     3.024199
      px      :     1.011586
      py      :     1.001601
      dz2     :     0.046792  d :     0.413658
      dxz     :     0.097774
      dyz     :     0.072316
      dx2y2   :     0.097154
      dxy     :     0.099621
      f0      :     0.003892  f :     0.038398
      f+1     :     0.004200
      f-1     :     0.003708
      f+2     :     0.005677
      f-2     :     0.004690
      f+3     :     0.009973
      f-3     :     0.006258
  3 C s       :     2.772089  s :     2.772089
      pz      :     1.018532  p :     3.026566
      px      :     1.003755
      py      :     1.004279
      dz2     :     0.047384  d :     0.407613
      dxz     :     0.094011
      dyz     :     0.072095
      dx2y2   :     0.094865
      dxy     :     0.099257
      f0      :     0.003894  f :     0.038397
      f+1     :     0.004190
      f-1     :     0.003784
      f+2     :     0.005565
      f-2     :     0.004647
      f+3     :     0.009944
      f-3     :     0.006375
  4 C s       :     2.776858  s :     2.776858
      pz      :     1.016068  p :     3.006871
      px      :     1.017628
      py      :     0.973175
      dz2     :     0.049855  d :     0.396767
      dxz     :     0.100723
      dyz     :     0.054249
      dx2y2   :     0.100134
      dxy     :     0.091805
      f0      :     0.003635  f :     0.036975
      f+1     :     0.004258
      f-1     :     0.003736
      f+2     :     0.004988
      f-2     :     0.004372
      f+3     :     0.009279
      f-3     :     0.006707
  5 C s       :     2.735615  s :     2.735615
      pz      :     0.861937  p :     2.811627
      px      :     0.955424
      py      :     0.994266
      dz2     :     0.115687  d :     0.665631
      dxz     :     0.158017
      dyz     :     0.130545
      dx2y2   :     0.142459
      dxy     :     0.118922
      f0      :     0.012879  f :     0.086396
      f+1     :     0.013566
      f-1     :     0.012097
      f+2     :     0.014618
      f-2     :     0.013397
      f+3     :     0.011390
      f-3     :     0.008449
  6 O s       :     3.367260  s :     3.367260
      pz      :     1.265749  p :     4.601037
      px      :     1.594890
      py      :     1.740398
      dz2     :     0.015768  d :     0.066392
      dxz     :     0.027814
      dyz     :     0.011990
      dx2y2   :     0.005540
      dxy     :     0.005280
      f0      :     0.000700  f :     0.004156
      f+1     :     0.001116
      f-1     :     0.000477
      f+2     :     0.000885
      f-2     :     0.000711
      f+3     :     0.000169
      f-3     :     0.000099
  7 C s       :     2.810342  s :     2.810342
      pz      :     0.886279  p :     2.906032
      px      :     1.125957
      py      :     0.893796
      dz2     :     0.025779  d :     0.332114
      dxz     :     0.098493
      dyz     :     0.010406
      dx2y2   :     0.095946
      dxy     :     0.101490
      f0      :     0.004394  f :     0.044896
      f+1     :     0.006726
      f-1     :     0.001541
      f+2     :     0.004839
      f-2     :     0.002920
      f+3     :     0.012306
      f-3     :     0.012172
  8 C s       :     2.885621  s :     2.885621
      pz      :     0.931342  p :     3.027936
      px      :     1.117225
      py      :     0.979370
      dz2     :     0.016842  d :     0.146031
      dxz     :     0.036097
      dyz     :     0.004695
      dx2y2   :     0.045600
      dxy     :     0.042796
      f0      :     0.003482  f :     0.035492
      f+1     :     0.005737
      f-1     :     0.001203
      f+2     :     0.003581
      f-2     :     0.002354
      f+3     :     0.008964
      f-3     :     0.010171
  9 H s       :     0.831350  s :     0.831350
      pz      :     0.012369  p :     0.059568
      px      :     0.032715
      py      :     0.014484
 10 H s       :     0.831942  s :     0.831942
      pz      :     0.027739  p :     0.059336
      px      :     0.016991
      py      :     0.014605
 11 H s       :     0.831942  s :     0.831942
      pz      :     0.026891  p :     0.059325
      px      :     0.017675
      py      :     0.014759
 12 H s       :     0.820024  s :     0.820024
      pz      :     0.025515  p :     0.056874
      px      :     0.017241
      py      :     0.014117
 13 H s       :     0.819513  s :     0.819513
      pz      :     0.026345  p :     0.056938
      px      :     0.016584
      py      :     0.014009
 14 H s       :     0.818257  s :     0.818257
      pz      :     0.025406  p :     0.056745
      px      :     0.017278
      py      :     0.014061
 15 H s       :     0.818561  s :     0.818561
      pz      :     0.026054  p :     0.056773
      px      :     0.016692
      py      :     0.014026
 16 H s       :     0.816456  s :     0.816456
      pz      :     0.025521  p :     0.056799
      px      :     0.017197
      py      :     0.014081
 17 H s       :     0.809582  s :     0.809582
      pz      :     0.027192  p :     0.058660
      px      :     0.016563
      py      :     0.014904
 18 H s       :     0.812147  s :     0.812147
      pz      :     0.025268  p :     0.057336
      px      :     0.017855
      py      :     0.014213
 19 H s       :     0.806526  s :     0.806526
      pz      :     0.027337  p :     0.057726
      px      :     0.017016
      py      :     0.013373
 20 H s       :     0.792441  s :     0.792441
      pz      :     0.023513  p :     0.054010
      px      :     0.016406
      py      :     0.014091
 21 H s       :     0.663266  s :     0.663266
      pz      :     0.056086  p :     0.158047
      px      :     0.056898
      py      :     0.045063
 22 H s       :     0.804548  s :     0.804548
      pz      :     0.012215  p :     0.069941
      px      :     0.040913
      py      :     0.016813


                      *****************************
                      * MAYER POPULATION ANALYSIS *
                      *****************************

  NA   - Mulliken gross atomic population
  ZA   - Total nuclear charge
  QA   - Mulliken gross atomic charge
  VA   - Mayer's total valence
  BVA  - Mayer's bonded valence
  FA   - Mayer's free valence

  ATOM       NA         ZA         QA         VA         BVA        FA
  0 C      6.3155     6.0000    -0.3155     3.9286     3.9286     0.0000
  1 C      6.1138     6.0000    -0.1138     3.8808     3.8808     0.0000
  2 C      6.1724     6.0000    -0.1724     3.8881     3.8881    -0.0000
  3 C      6.1851     6.0000    -0.1851     3.8938     3.8938    -0.0000
  4 C      6.1390     6.0000    -0.1390     3.8703     3.8703     0.0000
  5 C      5.9732     6.0000     0.0268     3.9903     3.9903     0.0000
  6 O      8.5340     8.0000    -0.5340     1.8323     1.8323     0.0000
  7 C      6.1425     6.0000    -0.1425     4.0505     4.0505     0.0000
  8 C      6.0316     6.0000    -0.0316     3.5393     3.5393    -0.0000
  9 H      0.8910     1.0000     0.1090     0.9701     0.9701     0.0000
 10 H      0.9050     1.0000     0.0950     0.9726     0.9726    -0.0000
 11 H      0.9050     1.0000     0.0950     0.9727     0.9727     0.0000
 12 H      0.9238     1.0000     0.0762     0.9739     0.9739    -0.0000
 13 H      0.9223     1.0000     0.0777     0.9751     0.9751    -0.0000
 14 H      0.9213     1.0000     0.0787     0.9742     0.9742    -0.0000
 15 H      0.9232     1.0000     0.0768     0.9755     0.9755    -0.0000
 16 H      0.9228     1.0000     0.0772     0.9797     0.9797    -0.0000
 17 H      0.8929     1.0000     0.1071     0.9940     0.9940     0.0000
 18 H      0.9150     1.0000     0.0850     0.9908     0.9908    -0.0000
 19 H      0.9013     1.0000     0.0987     0.9869     0.9869     0.0000
 20 H      0.9013     1.0000     0.0987     0.9597     0.9597    -0.0000
 21 H      0.6715     1.0000     0.3285     0.9121     0.9121     0.0000
 22 H      0.7964     1.0000     0.2036     0.9654     0.9654    -0.0000

  Mayer bond orders larger than 0.1
B(  0-C ,  1-C ) :   0.9719 B(  0-C ,  9-H ) :   0.9946 B(  0-C , 10-H ) :   0.9890 
B(  0-C , 11-H ) :   0.9890 B(  1-C ,  2-C ) :   0.9888 B(  1-C , 12-H ) :   0.9882 
B(  1-C , 13-H ) :   0.9883 B(  2-C ,  3-C ) :   0.9777 B(  2-C , 14-H ) :   0.9858 
B(  2-C , 15-H ) :   0.9821 B(  3-C ,  4-C ) :   0.9826 B(  3-C , 16-H ) :   0.9816 
B(  3-C , 17-H ) :   0.9913 B(  4-C ,  5-C ) :   1.0214 B(  4-C , 18-H ) :   0.9667 
B(  4-C , 19-H ) :   0.9817 B(  5-C ,  6-O ) :   0.8862 B(  5-C ,  7-C ) :   1.2499 
B(  5-C ,  8-C ) :  -0.1877 B(  5-C , 20-H ) :   0.9732 B(  6-O , 21-H ) :   0.8844 
B(  7-C ,  8-C ) :   2.7813 B(  8-C , 22-H ) :   0.9102 

-------
TIMINGS
-------

Total SCF time: 0 days 0 hours 3 min 23 sec 

Total time                  ....     203.281 sec
Sum of individual times     ....     208.638 sec  (102.6%)

Fock matrix formation       ....     201.303 sec  ( 99.0%)
Diagonalization             ....       0.858 sec  (  0.4%)
Density matrix formation    ....       0.055 sec  (  0.0%)
Population analysis         ....       0.209 sec  (  0.1%)
Initial guess               ....       3.640 sec  (  1.8%)
Orbital Transformation      ....       0.000 sec  (  0.0%)
Orbital Orthonormalization  ....       0.000 sec  (  0.0%)
DIIS solution               ....       0.273 sec  (  0.1%)
SOSCF solution              ....       0.415 sec  (  0.2%)

   <<< Auxbasis replaced with dsgdb9nsd_122897.AUXC.tmp (Dim=894) >>> 


------------------------------------------------------------------------------
                              ORCA MP2 CALCULATION
------------------------------------------------------------------------------

Freezing NCore=18 chemical core electrons

   <<< Use J-auxbasis for calculation of Separable RI-J derivative contributions dsgdb9nsd_122897.AUXJ.tmp (Dim=929) >>> 


---------------------
RI-MP2 ENERGY+DENSITY
---------------------
Dimension of the basis                    ...  363
Memory devoted to MP2                     ... 2000 MB   
Data format for buffers                   ... DOUBLE
Compression type for matrix containers    ... UNCOMPRESSED
Overall scaling of the MP2 energy         ...   1.000e+00 Eh
Calculating two index integrals           ... done (    0.020 sec)
Cholesky decomposition of V**-1           ... done (    0.143 sec)

-----------------
RI-TRANSFORMATION (AUX index driven)
-----------------

Dimension of the orbital-basis         ... 363
Dimension of the aux-basis             ... 894
Transformation of internal MOs         ...    0-  34
Transformation of internal/external MOs...    0-  34 to   35- 362
Number Format for Storage              ... Double (8 Byte)
Integral mode                          ... Direct

First Phase: integral generation and transformation of MO indices
  Aux angular momentum 0               ... done (    1.076 sec)
  Aux angular momentum 1               ... done (    1.490 sec)
  Aux angular momentum 2               ... done (    1.527 sec)
  Aux angular momentum 3               ... done (    1.051 sec)
  Aux angular momentum 4               ... done (    0.469 sec)
Closing buffer VIJ ( 0.00 GB; CompressionRatio= 1.94)
Closing buffer VIA ( 0.08 GB; CompressionRatio= 1.00)
  Phase 1 completed in     5.713 sec
Second Phase: sorting and transformation of aux index

IJ-Transformation
Memory available                       ... 1984 MB 
Max. # MO pairs treated in a batch     ... 35    
# of internal orbitals                 ... 35
# batches for internal orbitals        ... 1
Closing buffer IJV ( 0.00 GB; CompressionRatio= 1.00)
(ij|v) transformation done in     0.257 sec

IA-Transformation
Memory available                       ... 1984 MB 
Max. # MO pairs treated in a batch     ... 35    
# of internal orbitals                 ... 35
# batches for internal orbitals        ... 1
Closing buffer IAV ( 0.08 GB; CompressionRatio= 1.00)
(ia|v) transformation done in     1.906 sec

  Phase 2 completed in     2.188 sec
RI-Integral transformation completed in     7.901 sec
Opening buffers                              ... done
Frozen core precalculation                   ... done

Starting loop over batches of integrals:

Operator 0  - window                       ... (  9- 34)x( 35-362)
Operator 0  - Memory available             ...  2000 MB
Operator 0  - Memory needed per MO         ...   4.5 MB
Operator 0  - Number of orbitals per batch ... 26
Operator 0  - Number of batches            ... 1

OPERATOR  0   PASS   0:  MOs     9 ...   34
  Reading integrals       ... ok
  Internal MO  11
  Internal MO  14
  Internal MO  17
  Internal MO  20
  Internal MO  23
  Internal MO  26
  Internal MO  29
  Internal MO  32
Time spent in pair loops =    50.422 sec
Deleting buffer (Ka|jb)[aa] ...done

-----------------------------------------------
 RI-MP2 CORRELATION ENERGY:     -1.544665536 Eh
-----------------------------------------------


---------------------
MP2 DENSITY FORMATION
---------------------

Completing the external part of the density      ... done
Storing the unrelaxed density                    ... done

Calculating G(D)                                 ... done
Completing the Lagrangian                        ... done
Solving the Z-vector equations                   ... 

------------------------------------------------------------------------------
                           ORCA CP-SCF CALCULATION
------------------------------------------------------------------------------

Input orbitals are from        ... dsgdb9nsd_122897.gbw
Input Perturbation             ... dsgdb9nsd_122897.pin.tmp
Wavefunction output            ... dsgdb9nsd_122897.pout.tmp
Perturbation mode              ... Real perturbation
Solver                         ... POPLE
Max. number of iterations      ... 128
Convergence tolerance          ... 1.000e-08
Integral handling              ... Direct
Number of perturbations        ... 1
Number of operators            ... 1
Orbital ranges used for CP-SCF:
 Operator 0:  Orbitals   0... 34  to  35...362
Variables per vector in CP-SCF ... 11480
Number of vectors sought       ... 1
     CP-SCF ITERATION   0: 
     CP-SCF ITERATION   1:      0.000867874
     CP-SCF ITERATION   2:      0.000151323
     CP-SCF ITERATION   3:      0.000013781
     CP-SCF ITERATION   4:      0.000004468
     CP-SCF ITERATION   5:      0.000000980
     CP-SCF ITERATION   6:      0.000000137
     CP-SCF ITERATION   7:      0.000000015
     CP-SCF ITERATION   8:      0.000000001
done
Finalizing the relaxed density                   ... done
Transforming P to the AO basis                   ... done
Storing the relaxed density                      ... done

                *********************************************
                * UNRELAXED MP2 DENSITY POPULATION ANALYSIS *
                *********************************************

------------------------------------------------------------------------------
                           ORCA POPULATION ANALYSIS
------------------------------------------------------------------------------
Input electron density              ... dsgdb9nsd_122897.pmp2ur
BaseName (.gbw .S,...)              ... dsgdb9nsd_122897

                    ********************************
                    * MULLIKEN POPULATION ANALYSIS *
                    ********************************

-----------------------
MULLIKEN ATOMIC CHARGES
-----------------------
   0 C :   -0.324243
   1 C :   -0.121986
   2 C :   -0.180109
   3 C :   -0.192482
   4 C :   -0.147520
   5 C :    0.017015
   6 O :   -0.521039
   7 C :   -0.145826
   8 C :   -0.034981
   9 H :    0.112340
  10 H :    0.098185
  11 H :    0.098132
  12 H :    0.079921
  13 H :    0.081376
  14 H :    0.082539
  15 H :    0.080513
  16 H :    0.081047
  17 H :    0.110296
  18 H :    0.088878
  19 H :    0.102293
  20 H :    0.102750
  21 H :    0.326065
  22 H :    0.206837
Sum of atomic charges:    0.0000000

--------------------------------
MULLIKEN REDUCED ORBITAL CHARGES
--------------------------------
  0 C s       :     3.214801  s :     3.214801
      pz      :     1.031084  p :     2.999725
      px      :     1.042772
      py      :     0.925868
      dz2     :     0.016383  d :     0.101467
      dxz     :     0.017129
      dyz     :     0.025013
      dx2y2   :     0.019998
      dxy     :     0.022943
      f0      :     0.000858  f :     0.008251
      f+1     :     0.001491
      f-1     :     0.001235
      f+2     :     0.001068
      f-2     :     0.000664
      f+3     :     0.001345
      f-3     :     0.001590
  1 C s       :     3.120677  s :     3.120677
      pz      :     0.998999  p :     2.855550
      px      :     0.926016
      py      :     0.930535
      dz2     :     0.017628  d :     0.135244
      dxz     :     0.032224
      dyz     :     0.025036
      dx2y2   :     0.028930
      dxy     :     0.031426
      f0      :     0.001140  f :     0.010515
      f+1     :     0.001638
      f-1     :     0.001329
      f+2     :     0.001446
      f-2     :     0.000910
      f+3     :     0.002082
      f-3     :     0.001972
  2 C s       :     3.140997  s :     3.140997
      pz      :     1.012701  p :     2.895919
      px      :     0.957001
      py      :     0.926217
      dz2     :     0.016534  d :     0.132681
      dxz     :     0.034273
      dyz     :     0.024474
      dx2y2   :     0.028659
      dxy     :     0.028741
      f0      :     0.001133  f :     0.010513
      f+1     :     0.001649
      f-1     :     0.001320
      f+2     :     0.001444
      f-2     :     0.000943
      f+3     :     0.002072
      f-3     :     0.001952
  3 C s       :     3.139909  s :     3.139909
      pz      :     1.027235  p :     2.911108
      px      :     0.941642
      py      :     0.942231
      dz2     :     0.016885  d :     0.130920
      dxz     :     0.032349
      dyz     :     0.025227
      dx2y2   :     0.027897
      dxy     :     0.028562
      f0      :     0.001145  f :     0.010544
      f+1     :     0.001643
      f-1     :     0.001356
      f+2     :     0.001434
      f-2     :     0.000940
      f+3     :     0.002068
      f-3     :     0.001959
  4 C s       :     3.094762  s :     3.094762
      pz      :     1.043385  p :     2.913042
      px      :     0.960872
      py      :     0.908785
      dz2     :     0.018181  d :     0.129261
      dxz     :     0.035795
      dyz     :     0.017734
      dx2y2   :     0.030845
      dxy     :     0.026706
      f0      :     0.001147  f :     0.010456
      f+1     :     0.001717
      f-1     :     0.001295
      f+2     :     0.001361
      f-2     :     0.000925
      f+3     :     0.001978
      f-3     :     0.002033
  5 C s       :     3.226308  s :     3.226308
      pz      :     0.812702  p :     2.544647
      px      :     0.834874
      py      :     0.897071
      dz2     :     0.034273  d :     0.195351
      dxz     :     0.044812
      dyz     :     0.043455
      dx2y2   :     0.040346
      dxy     :     0.032465
      f0      :     0.002562  f :     0.016679
      f+1     :     0.002561
      f-1     :     0.002336
      f+2     :     0.002884
      f-2     :     0.001954
      f+3     :     0.002234
      f-3     :     0.002148
  6 O s       :     3.798247  s :     3.798247
      pz      :     1.242306  p :     4.657122
      px      :     1.593324
      py      :     1.821493
      dz2     :     0.009079  d :     0.061186
      dxz     :     0.021519
      dyz     :     0.011057
      dx2y2   :     0.009566
      dxy     :     0.009965
      f0      :     0.000585  f :     0.004483
      f+1     :     0.000944
      f-1     :     0.000631
      f+2     :     0.000707
      f-2     :     0.000668
      f+3     :     0.000465
      f-3     :     0.000483
  7 C s       :     3.408598  s :     3.408598
      pz      :     0.968333  p :     2.600982
      px      :     0.757195
      py      :     0.875453
      dz2     :     0.012793  d :     0.120977
      dxz     :     0.032375
      dyz     :     0.007442
      dx2y2   :     0.030674
      dxy     :     0.037693
      f0      :     0.002004  f :     0.015268
      f+1     :     0.001490
      f-1     :     0.000696
      f+2     :     0.002299
      f-2     :     0.001606
      f+3     :     0.004226
      f-3     :     0.002947
  8 C s       :     2.981342  s :     2.981342
      pz      :     0.963386  p :     3.003001
      px      :     1.034616
      py      :     1.004999
      dz2     :     0.002727  d :     0.039214
      dxz     :     0.015519
      dyz     :     0.006286
      dx2y2   :     0.005880
      dxy     :     0.008801
      f0      :     0.001392  f :     0.011425
      f+1     :     0.001382
      f-1     :     0.000583
      f+2     :     0.001527
      f-2     :     0.001187
      f+3     :     0.002857
      f-3     :     0.002498
  9 H s       :     0.862830  s :     0.862830
      pz      :     0.004797  p :     0.024830
      px      :     0.013726
      py      :     0.006307
 10 H s       :     0.877168  s :     0.877168
      pz      :     0.011504  p :     0.024647
      px      :     0.006756
      py      :     0.006386
 11 H s       :     0.877223  s :     0.877223
      pz      :     0.011130  p :     0.024644
      px      :     0.007052
      py      :     0.006463
 12 H s       :     0.895164  s :     0.895164
      pz      :     0.010984  p :     0.024915
      px      :     0.007834
      py      :     0.006097
 13 H s       :     0.893691  s :     0.893691
      pz      :     0.011403  p :     0.024933
      px      :     0.007486
      py      :     0.006044
 14 H s       :     0.892609  s :     0.892609
      pz      :     0.010973  p :     0.024852
      px      :     0.007765
      py      :     0.006114
 15 H s       :     0.894625  s :     0.894625
      pz      :     0.011296  p :     0.024862
      px      :     0.007460
      py      :     0.006106
 16 H s       :     0.894055  s :     0.894055
      pz      :     0.011002  p :     0.024898
      px      :     0.007811
      py      :     0.006085
 17 H s       :     0.864360  s :     0.864360
      pz      :     0.011566  p :     0.025344
      px      :     0.007307
      py      :     0.006472
 18 H s       :     0.885962  s :     0.885962
      pz      :     0.010772  p :     0.025160
      px      :     0.008151
      py      :     0.006237
 19 H s       :     0.872461  s :     0.872461
      pz      :     0.011803  p :     0.025246
      px      :     0.007611
      py      :     0.005832
 20 H s       :     0.871989  s :     0.871989
      pz      :     0.011411  p :     0.025260
      px      :     0.007790
      py      :     0.006060
 21 H s       :     0.626555  s :     0.626555
      pz      :     0.017270  p :     0.047381
      px      :     0.014667
      py      :     0.015444
 22 H s       :     0.766112  s :     0.766112
      pz      :     0.004511  p :     0.027052
      px      :     0.016227
      py      :     0.006313


                     *******************************
                     * LOEWDIN POPULATION ANALYSIS *
                     *******************************

----------------------
LOEWDIN ATOMIC CHARGES
----------------------
   0 C :   -0.296922
   1 C :   -0.277487
   2 C :   -0.254428
   3 C :   -0.248149
   4 C :   -0.222303
   5 C :   -0.305774
   6 O :   -0.029714
   7 C :   -0.093858
   8 C :   -0.097240
   9 H :    0.110966
  10 H :    0.110559
  11 H :    0.110570
  12 H :    0.124777
  13 H :    0.125226
  14 H :    0.126678
  15 H :    0.126338
  16 H :    0.128446
  17 H :    0.133340
  18 H :    0.132199
  19 H :    0.137438
  20 H :    0.154934
  21 H :    0.177126
  22 H :    0.127276

-------------------------------
LOEWDIN REDUCED ORBITAL CHARGES
-------------------------------
  0 C s       :     2.828168  s :     2.828168
      pz      :     1.050290  p :     3.129207
      px      :     1.048388
      py      :     1.030529
      dz2     :     0.046765  d :     0.309360
      dxz     :     0.039728
      dyz     :     0.080744
      dx2y2   :     0.063293
      dxy     :     0.078830
      f0      :     0.002756  f :     0.030186
      f+1     :     0.004050
      f-1     :     0.004343
      f+2     :     0.004280
      f-2     :     0.003360
      f+3     :     0.006191
      f-3     :     0.005206
  1 C s       :     2.776552  s :     2.776552
      pz      :     1.007269  p :     3.016009
      px      :     1.001857
      py      :     1.006883
      dz2     :     0.053435  d :     0.440419
      dxz     :     0.100807
      dyz     :     0.077335
      dx2y2   :     0.103132
      dxy     :     0.105710
      f0      :     0.004635  f :     0.044506
      f+1     :     0.005139
      f-1     :     0.004675
      f+2     :     0.006294
      f-2     :     0.005405
      f+3     :     0.010962
      f-3     :     0.007396
  2 C s       :     2.773081  s :     2.773081
      pz      :     1.003967  p :     2.998419
      px      :     1.002523
      py      :     0.991929
      dz2     :     0.052681  d :     0.438552
      dxz     :     0.102356
      dyz     :     0.077132
      dx2y2   :     0.102337
      dxy     :     0.104046
      f0      :     0.004590  f :     0.044375
      f+1     :     0.005133
      f-1     :     0.004580
      f+2     :     0.006423
      f-2     :     0.005450
      f+3     :     0.010771
      f-3     :     0.007429
  3 C s       :     2.770372  s :     2.770372
      pz      :     1.011277  p :     3.000559
      px      :     0.994774
      py      :     0.994508
      dz2     :     0.053311  d :     0.432824
      dxz     :     0.098667
      dyz     :     0.077003
      dx2y2   :     0.100149
      dxy     :     0.103694
      f0      :     0.004597  f :     0.044394
      f+1     :     0.005120
      f-1     :     0.004664
      f+2     :     0.006311
      f-2     :     0.005410
      f+3     :     0.010745
      f-3     :     0.007547
  4 C s       :     2.775281  s :     2.775281
      pz      :     1.008826  p :     2.981557
      px      :     1.008284
      py      :     0.964447
      dz2     :     0.055723  d :     0.422480
      dxz     :     0.105336
      dyz     :     0.059657
      dx2y2   :     0.105235
      dxy     :     0.096529
      f0      :     0.004351  f :     0.042984
      f+1     :     0.005214
      f-1     :     0.004579
      f+2     :     0.005768
      f-2     :     0.005123
      f+3     :     0.010090
      f-3     :     0.007859
  5 C s       :     2.734734  s :     2.734734
      pz      :     0.859011  p :     2.793327
      px      :     0.948797
      py      :     0.985519
      dz2     :     0.119356  d :     0.684629
      dxz     :     0.161686
      dyz     :     0.133987
      dx2y2   :     0.146639
      dxy     :     0.122961
      f0      :     0.013626  f :     0.093084
      f+1     :     0.014640
      f-1     :     0.012997
      f+2     :     0.015409
      f-2     :     0.014245
      f+3     :     0.012432
      f-3     :     0.009735
  6 O s       :     3.363930  s :     3.363930
      pz      :     1.255646  p :     4.562750
      px      :     1.581298
      py      :     1.725806
      dz2     :     0.021455  d :     0.095913
      dxz     :     0.033944
      dyz     :     0.017889
      dx2y2   :     0.011416
      dxy     :     0.011209
      f0      :     0.001105  f :     0.007120
      f+1     :     0.001607
      f-1     :     0.000896
      f+2     :     0.001315
      f-2     :     0.001151
      f+3     :     0.000556
      f-3     :     0.000490
  7 C s       :     2.806525  s :     2.806525
[...]
      f-1     :     0.002119
      f+2     :     0.002862
      f-2     :     0.001920
      f+3     :     0.002231
      f-3     :     0.001886
  6 O s       :     3.795809  s :     3.795809
      pz      :     1.233428  p :     4.604535
      px      :     1.571231
      py      :     1.799876
      dz2     :     0.009164  d :     0.058790
      dxz     :     0.019368
      dyz     :     0.010596
      dx2y2   :     0.009684
      dxy     :     0.009979
      f0      :     0.000593  f :     0.004410
      f+1     :     0.000903
      f-1     :     0.000624
      f+2     :     0.000694
      f-2     :     0.000648
      f+3     :     0.000466
      f-3     :     0.000482
  7 C s       :     3.285762  s :     3.285762
      pz      :     0.954285  p :     2.653510
      px      :     0.824758
      py      :     0.874467
      dz2     :     0.010688  d :     0.099604
      dxz     :     0.026814
      dyz     :     0.006923
      dx2y2   :     0.024799
      dxy     :     0.030381
      f0      :     0.001920  f :     0.014587
      f+1     :     0.001408
      f-1     :     0.000673
      f+2     :     0.002220
      f-2     :     0.001570
      f+3     :     0.004016
      f-3     :     0.002781
  8 C s       :     3.041821  s :     3.041821
      pz      :     0.981683  p :     3.038548
      px      :     1.055881
      py      :     1.000984
      dz2     :     0.003054  d :     0.027781
      dxz     :     0.009470
      dyz     :     0.005483
      dx2y2   :     0.004737
      dxy     :     0.005036
      f0      :     0.001268  f :     0.010529
      f+1     :     0.001312
      f-1     :     0.000558
      f+2     :     0.001394
      f-2     :     0.001096
      f+3     :     0.002600
      f-3     :     0.002302
  9 H s       :     0.843098  s :     0.843098
      pz      :     0.005068  p :     0.023868
      px      :     0.012465
      py      :     0.006335
 10 H s       :     0.855305  s :     0.855305
      pz      :     0.010622  p :     0.023679
      px      :     0.006685
      py      :     0.006372
 11 H s       :     0.855392  s :     0.855392
      pz      :     0.010311  p :     0.023677
      px      :     0.006930
      py      :     0.006436
 12 H s       :     0.871588  s :     0.871588
      pz      :     0.010176  p :     0.023881
      px      :     0.007597
      py      :     0.006108
 13 H s       :     0.870138  s :     0.870138
      pz      :     0.010527  p :     0.023895
      px      :     0.007304
      py      :     0.006063
 14 H s       :     0.870455  s :     0.870455
      pz      :     0.010159  p :     0.023833
      px      :     0.007558
      py      :     0.006116
 15 H s       :     0.872486  s :     0.872486
      pz      :     0.010432  p :     0.023848
      px      :     0.007303
      py      :     0.006113
 16 H s       :     0.872356  s :     0.872356
      pz      :     0.010204  p :     0.023885
      px      :     0.007581
      py      :     0.006100
 17 H s       :     0.849821  s :     0.849821
      pz      :     0.010695  p :     0.024324
      px      :     0.007132
      py      :     0.006496
 18 H s       :     0.867056  s :     0.867056
      pz      :     0.009977  p :     0.024085
      px      :     0.007847
      py      :     0.006260
 19 H s       :     0.855446  s :     0.855446
      pz      :     0.010841  p :     0.024130
      px      :     0.007392
      py      :     0.005898
 20 H s       :     0.860600  s :     0.860600
      pz      :     0.010474  p :     0.023904
      px      :     0.007378
      py      :     0.006052
 21 H s       :     0.633414  s :     0.633414
      pz      :     0.016680  p :     0.048047
      px      :     0.014874
      py      :     0.016493
 22 H s       :     0.780616  s :     0.780616
      pz      :     0.004812  p :     0.025655
      px      :     0.014578
      py      :     0.006266


                     *******************************
                     * LOEWDIN POPULATION ANALYSIS *
                     *******************************

----------------------
LOEWDIN ATOMIC CHARGES
----------------------
   0 C :   -0.322472
   1 C :   -0.297565
   2 C :   -0.273928
   3 C :   -0.268028
   4 C :   -0.243100
   5 C :   -0.335381
   6 O :   -0.008207
   7 C :   -0.095236
   8 C :   -0.091153
   9 H :    0.120095
  10 H :    0.119673
  11 H :    0.119683
  12 H :    0.134182
  13 H :    0.134600
  14 H :    0.136101
  15 H :    0.135714
  16 H :    0.137923
  17 H :    0.141195
  18 H :    0.140737
  19 H :    0.146297
  20 H :    0.161896
  21 H :    0.179124
  22 H :    0.127851

-------------------------------
LOEWDIN REDUCED ORBITAL CHARGES
-------------------------------
  0 C s       :     2.832828  s :     2.832828
      pz      :     1.065931  p :     3.163856
      px      :     1.063294
      py      :     1.034631
      dz2     :     0.042797  d :     0.295923
      dxz     :     0.036014
      dyz     :     0.080024
      dx2y2   :     0.058632
      dxy     :     0.078456
      f0      :     0.002789  f :     0.029865
      f+1     :     0.003917
      f-1     :     0.004243
      f+2     :     0.004341
      f-2     :     0.003281
      f+3     :     0.006208
      f-3     :     0.005085
  1 C s       :     2.781623  s :     2.781623
      pz      :     1.022176  p :     3.041577
      px      :     1.008033
      py      :     1.011368
      dz2     :     0.049436  d :     0.430096
      dxz     :     0.097759
      dyz     :     0.077302
      dx2y2   :     0.099573
      dxy     :     0.106025
      f0      :     0.004678  f :     0.044269
      f+1     :     0.004942
      f-1     :     0.004551
      f+2     :     0.006345
      f-2     :     0.005381
      f+3     :     0.011120
      f-3     :     0.007253
  2 C s       :     2.778688  s :     2.778688
      pz      :     1.018937  p :     3.022478
      px      :     1.008791
      py      :     0.994749
      dz2     :     0.048835  d :     0.428683
      dxz     :     0.099296
      dyz     :     0.077090
      dx2y2   :     0.098967
      dxy     :     0.104494
      f0      :     0.004623  f :     0.044080
      f+1     :     0.004930
      f-1     :     0.004462
      f+2     :     0.006472
      f-2     :     0.005419
      f+3     :     0.010879
      f-3     :     0.007296
  3 C s       :     2.776107  s :     2.776107
      pz      :     1.025898  p :     3.025088
      px      :     1.002220
      py      :     0.996970
      dz2     :     0.049424  d :     0.422720
      dxz     :     0.095628
      dyz     :     0.076972
      dx2y2   :     0.096586
      dxy     :     0.104111
      f0      :     0.004629  f :     0.044114
      f+1     :     0.004910
      f-1     :     0.004554
      f+2     :     0.006367
      f-2     :     0.005373
      f+3     :     0.010857
      f-3     :     0.007423
  4 C s       :     2.782387  s :     2.782387
      pz      :     1.021961  p :     3.005347
      px      :     1.011753
      py      :     0.971632
      dz2     :     0.051809  d :     0.412739
      dxz     :     0.102329
      dyz     :     0.059607
      dx2y2   :     0.101426
      dxy     :     0.097568
      f0      :     0.004376  f :     0.042627
      f+1     :     0.005013
      f-1     :     0.004436
      f+2     :     0.005781
      f-2     :     0.005118
      f+3     :     0.010216
      f-3     :     0.007687
  5 C s       :     2.741540  s :     2.741540
      pz      :     0.868119  p :     2.817275
      px      :     0.962639
      py      :     0.986517
      dz2     :     0.116343  d :     0.684727
      dxz     :     0.162332
      dyz     :     0.135231
      dx2y2   :     0.146258
      dxy     :     0.124563
      f0      :     0.013445  f :     0.091839
      f+1     :     0.014233
      f-1     :     0.012892
      f+2     :     0.015038
      f-2     :     0.014194
      f+3     :     0.012551
      f-3     :     0.009487
  6 O s       :     3.368069  s :     3.368069
      pz      :     1.257935  p :     4.537549
      px      :     1.569356
      py      :     1.710259
      dz2     :     0.021560  d :     0.095378
      dxz     :     0.032905
      dyz     :     0.017878
      dx2y2   :     0.011646
      dxy     :     0.011388
      f0      :     0.001113  f :     0.007212
      f+1     :     0.001643
      f-1     :     0.000919
      f+2     :     0.001324
      f-2     :     0.001162
      f+3     :     0.000556
      f-3     :     0.000495
  7 C s       :     2.810539  s :     2.810539
      pz      :     0.879645  p :     2.884360
      px      :     1.106712
      py      :     0.898004
      dz2     :     0.031668  d :     0.347751
      dxz     :     0.099003
      dyz     :     0.015369
      dx2y2   :     0.099009
      dxy     :     0.102703
      f0      :     0.005360  f :     0.052586
      f+1     :     0.007822
      f-1     :     0.002010
      f+2     :     0.005903
      f-2     :     0.003926
      f+3     :     0.013764
      f-3     :     0.013801
  8 C s       :     2.888984  s :     2.888984
      pz      :     0.929139  p :     2.993848
      px      :     1.101733
      py      :     0.962977
      dz2     :     0.022118  d :     0.165992
      dxz     :     0.037110
      dyz     :     0.009025
      dx2y2   :     0.050613
      dxy     :     0.047126
      f0      :     0.004243  f :     0.042328
      f+1     :     0.006657
      f-1     :     0.001660
      f+2     :     0.004441
      f-2     :     0.003108
      f+3     :     0.010621
      f-3     :     0.011598
  9 H s       :     0.814046  s :     0.814046
      pz      :     0.014256  p :     0.065859
      px      :     0.035053
      py      :     0.016550
 10 H s       :     0.814704  s :     0.814704
      pz      :     0.030008  p :     0.065622
      px      :     0.019007
      py      :     0.016607
 11 H s       :     0.814707  s :     0.814707
      pz      :     0.029136  p :     0.065610
      px      :     0.019708
      py      :     0.016766
 12 H s       :     0.802198  s :     0.802198
      pz      :     0.027950  p :     0.063620
      px      :     0.019457
      py      :     0.016214
 13 H s       :     0.801735  s :     0.801735
      pz      :     0.028802  p :     0.063665
      px      :     0.018767
      py      :     0.016096
 14 H s       :     0.800270  s :     0.800270
      pz      :     0.027894  p :     0.063629
      px      :     0.019567
      py      :     0.016168
 15 H s       :     0.800624  s :     0.800624
      pz      :     0.028578  p :     0.063662
      px      :     0.018950
      py      :     0.016134
 16 H s       :     0.798363  s :     0.798363
      pz      :     0.028047  p :     0.063714
      px      :     0.019456
      py      :     0.016210
 17 H s       :     0.793426  s :     0.793426
      pz      :     0.029588  p :     0.065379
      px      :     0.018728
      py      :     0.017062
 18 H s       :     0.795174  s :     0.795174
      pz      :     0.027676  p :     0.064089
      px      :     0.020044
      py      :     0.016370
 19 H s       :     0.789313  s :     0.789313
      pz      :     0.029678  p :     0.064391
      px      :     0.019129
      py      :     0.015583
 20 H s       :     0.778155  s :     0.778155
      pz      :     0.025586  p :     0.059949
      px      :     0.018400
      py      :     0.015963
 21 H s       :     0.658419  s :     0.658419
      pz      :     0.056581  p :     0.162457
      px      :     0.058790
      py      :     0.047086
 22 H s       :     0.798116  s :     0.798116
      pz      :     0.014511  p :     0.074034
      px      :     0.041027
      py      :     0.018496


                      *****************************
                      * MAYER POPULATION ANALYSIS *
                      *****************************

  NA   - Mulliken gross atomic population
  ZA   - Total nuclear charge
  QA   - Mulliken gross atomic charge
  VA   - Mayer's total valence
  BVA  - Mayer's bonded valence
  FA   - Mayer's free valence

  ATOM       NA         ZA         QA         VA         BVA        FA
  0 C      6.3832     6.0000    -0.3832     4.0206     3.7246     0.2960
  1 C      6.1790     6.0000    -0.1790     3.9828     3.6738     0.3090
  2 C      6.2259     6.0000    -0.2259     3.9901     3.6757     0.3144
  3 C      6.2290     6.0000    -0.2290     3.9825     3.6681     0.3144
  4 C      6.1988     6.0000    -0.1988     3.9493     3.6333     0.3160
  5 C      6.0299     6.0000    -0.0299     4.1606     3.8548     0.3058
  6 O      8.4635     8.0000    -0.4635     2.2025     1.8014     0.4011
  7 C      6.0535     6.0000    -0.0535     4.1827     3.7673     0.4154
  8 C      6.1187     6.0000    -0.1187     3.8376     3.4166     0.4210
  9 H      0.8670     1.0000     0.1330     0.9730     0.9245     0.0484
 10 H      0.8790     1.0000     0.1210     0.9765     0.9270     0.0495
 11 H      0.8791     1.0000     0.1209     0.9766     0.9271     0.0495
 12 H      0.8955     1.0000     0.1045     0.9748     0.9237     0.0512
 13 H      0.8940     1.0000     0.1060     0.9758     0.9248     0.0511
 14 H      0.8943     1.0000     0.1057     0.9748     0.9232     0.0516
 15 H      0.8963     1.0000     0.1037     0.9767     0.9249     0.0518
 16 H      0.8962     1.0000     0.1038     0.9808     0.9292     0.0516
 17 H      0.8741     1.0000     0.1259     1.0017     0.9517     0.0500
 18 H      0.8911     1.0000     0.1089     0.9922     0.9408     0.0514
 19 H      0.8796     1.0000     0.1204     0.9862     0.9355     0.0507
 20 H      0.8845     1.0000     0.1155     0.9574     0.9080     0.0495
 21 H      0.6815     1.0000     0.3185     0.9222     0.8709     0.0513
 22 H      0.8063     1.0000     0.1937     0.9718     0.9312     0.0406

  Mayer bond orders larger than 0.1
B(  0-C ,  1-C ) :   0.9226 B(  0-C ,  9-H ) :   0.9437 B(  0-C , 10-H ) :   0.9396 
B(  0-C , 11-H ) :   0.9396 B(  1-C ,  2-C ) :   0.9365 B(  1-C , 12-H ) :   0.9340 
B(  1-C , 13-H ) :   0.9341 B(  2-C ,  3-C ) :   0.9266 B(  2-C , 14-H ) :   0.9303 
B(  2-C , 15-H ) :   0.9271 B(  3-C ,  4-C ) :   0.9304 B(  3-C , 16-H ) :   0.9257 
B(  3-C , 17-H ) :   0.9310 B(  4-C ,  5-C ) :   0.9489 B(  4-C , 18-H ) :   0.9131 
B(  4-C , 19-H ) :   0.9218 B(  5-C ,  6-O ) :   0.8766 B(  5-C ,  7-C ) :   1.1632 
B(  5-C , 20-H ) :   0.9132 B(  6-O , 21-H ) :   0.8409 B(  7-C ,  8-C ) :   2.5729 
B(  8-C , 22-H ) :   0.8918 


-------
TIMINGS
-------

Total time                :  890.267 sec
Integral trafo            :    7.909 sec (  0.9%)
FC preparation            :    4.777 sec (  0.5%)
I/O of integrals          :    0.066 sec (  0.0%)
K(i,j) Operators          :   12.482 sec (  1.4%)
T(i,j) pair energies      :    1.106 sec (  0.1%)
V-calculation             :    0.020 sec (  0.0%)
V**(-1/2)                 :    0.143 sec (  0.0%)
Gamma(ia|P)               :   12.249 sec (  1.4%)
Gamma-Trafo               :    1.875 sec (  0.2%)
D(virtual)                :    4.667 sec (  0.5%)
D(internal)               :    4.612 sec (  0.5%)
W(virtual)                :    0.000 sec (  0.0%)
W(internal)               :    0.000 sec (  0.0%)
L(virtual)                :   12.722 sec (  1.4%)
L(internal)               :    0.247 sec (  0.0%)
G(D)                      :  100.017 sec ( 11.2%)
G(Z)                      :    0.000 sec (  0.0%)
Z-Vector Solution         :  726.456 sec ( 81.6%)
3-Index Derivative        :    0.000 sec (  0.0%)
2-Index Derivative        :    0.000 sec (  0.0%)
Separable Gradient (RIJ)  :    0.000 sec (  0.0%)
Separable Gradient (X)    :    0.000 sec (  0.0%)


---------------------------------------
MP2 TOTAL ENERGY:     -387.578774323 Eh
---------------------------------------

-------------------------   --------------------
FINAL SINGLE POINT ENERGY      -387.578774322802
-------------------------   --------------------


                            ***************************************
                            *     ORCA property calculations      *
                            ***************************************

                                    ---------------------
                                    Active property flags
                                    ---------------------
   (+) Dipole Moment


------------------------------------------------------------------------------
                       ORCA ELECTRIC PROPERTIES CALCULATION
------------------------------------------------------------------------------

Dipole Moment Calculation                       ... on
Quadrupole Moment Calculation                   ... off
Polarizability Calculation                      ... off
GBWName                                         ... dsgdb9nsd_122897.gbw
Electron density file                           ... dsgdb9nsd_122897.scfp.tmp

-------------
DIPOLE MOMENT
-------------
                                X             Y             Z
Electronic contribution:     -7.80689     -13.44233       0.94637
Nuclear contribution   :      7.40698      13.87529      -0.94100
                        -----------------------------------------
Total Dipole Moment    :     -0.39991       0.43296       0.00537
                        -----------------------------------------
Magnitude (a.u.)       :      0.58942
Magnitude (Debye)      :      1.49818


                         *** MP2 UNRELAXED DENSITY ***

------------------------------------------------------------------------------
                       ORCA ELECTRIC PROPERTIES CALCULATION
------------------------------------------------------------------------------

Dipole Moment Calculation                       ... on
Quadrupole Moment Calculation                   ... off
Polarizability Calculation                      ... off
GBWName                                         ... dsgdb9nsd_122897.gbw
Electron density file                           ... dsgdb9nsd_122897.pmp2ur

-------------
DIPOLE MOMENT
-------------
                                X             Y             Z
Electronic contribution:     -7.79220     -13.45128       0.95284
Nuclear contribution   :      7.40698      13.87529      -0.94100
                        -----------------------------------------
Total Dipole Moment    :     -0.38523       0.42401       0.01184
                        -----------------------------------------
Magnitude (a.u.)       :      0.57299
Magnitude (Debye)      :      1.45643


                           *** MP2 RELAXED DENSITY ***

------------------------------------------------------------------------------
                       ORCA ELECTRIC PROPERTIES CALCULATION
------------------------------------------------------------------------------

Dipole Moment Calculation                       ... on
Quadrupole Moment Calculation                   ... off
Polarizability Calculation                      ... off
GBWName                                         ... dsgdb9nsd_122897.gbw
Electron density file                           ... dsgdb9nsd_122897.pmp2re

-------------
DIPOLE MOMENT
-------------
                                X             Y             Z
Electronic contribution:     -7.79948     -13.48431       0.96231
Nuclear contribution   :      7.40698      13.87529      -0.94100
                        -----------------------------------------
Total Dipole Moment    :     -0.39250       0.39099       0.02131
                        -----------------------------------------
Magnitude (a.u.)       :      0.55442
Magnitude (Debye)      :      1.40922


Timings for individual modules:

Sum of individual times         ...     1098.083 sec (=  18.301 min)
GTO integral calculation        ...        0.638 sec (=   0.011 min)   0.1 %
SCF iterations                  ...      207.008 sec (=   3.450 min)  18.9 %
MP2 module                      ...      890.437 sec (=  14.841 min)  81.1 %
                             ****ORCA TERMINATED NORMALLY****
TOTAL RUN TIME: 0 days 0 hours 18 minutes 18 seconds 588 msec
