
                                 *****************
                                 * O   R   C   A *
                                 *****************

           --- An Ab Initio, DFT and Semiempirical electronic structure package ---

                  #######################################################
                  #                        -***-                        #
                  #  Department of molecular theory and spectroscopy    #
                  #              Directorship: Frank Neese              #
                  # Max Planck Institute for Chemical Energy Conversion #
                  #                  D-45470 Muelheim/Ruhr              #
                  #                       Germany                       #
                  #                                                     #
                  #                  All rights reserved                #
                  #                        -***-                        #
                  #######################################################


                         Program Version 3.0.3 - RELEASE   -


 With contributions from (in alphabetic order):
   Ute Becker             : Parallelization
   Dmytro Bykov           : SCF Hessian
   Dmitry Ganyushin       : Spin-Orbit,Spin-Spin,Magnetic field MRCI
   Andreas Hansen         : Spin unrestricted coupled pair/coupled cluster methods
   Dimitrios Liakos       : Extrapolation schemes; parallel MDCI
   Robert Izsak           : Overlap fitted RIJCOSX, COSX-SCS-MP3
   Christian Kollmar      : KDIIS, OOCD, Brueckner-CCSD(T), CCSD density
   Simone Kossmann        : Meta GGA functionals, TD-DFT gradient, OOMP2, MP2 Hessian
   Taras Petrenko         : DFT Hessian,TD-DFT gradient, ASA and ECA modules, normal mode analysis, Resonance Raman, ABS, FL, XAS/XES, NRVS
   Christoph Reimann      : Effective Core Potentials
   Michael Roemelt        : Restricted open shell CIS
   Christoph Riplinger    : Improved optimizer, TS searches, QM/MM, DLPNO-CCSD
   Barbara Sandhoefer     : DKH picture change effects
   Igor Schapiro          : Molecular dynamics
   Kantharuban Sivalingam : CASSCF convergence, NEVPT2
   Boris Wezisla          : Elementary symmetry handling
   Frank Wennmohs         : Technical directorship


 We gratefully acknowledge several colleagues who have allowed us to
 interface, adapt or use parts of their codes:
   Stefan Grimme, W. Hujo, H. Kruse, T. Risthaus : VdW corrections, initial TS optimization,
                                                   DFT functionals, gCP
   Ed Valeev                                     : LibInt (2-el integral package), F12 methods
   Garnet Chan, S. Sharma, R. Olivares           : DMRG
   Ulf Ekstrom                                   : XCFun DFT Library
   Mihaly Kallay                                 : mrcc  (arbitrary order and MRCC methods)
   Andreas Klamt, Michael Diedenhofen            : otool_cosmo (COSMO solvation model)
   Frank Weinhold                                : gennbo (NPA and NBO analysis)
   Christopher J. Cramer and Donald G. Truhlar   : smd solvation model


 Your calculation uses the libint2 library for the computation of 2-el integrals
 For citations please refer to: http://libint.valeyev.net

 This ORCA versions uses:
   CBLAS   interface :  Fast vector & matrix operations
   LAPACKE interface :  Fast linear algebra routines
   SCALAPACK package :  Parallel linear algebra routines


Your calculation utilizes the basis: Ahlrichs-TZV
Cite in your paper:
H - Kr: A. Schaefer, H. Horn and R. Ahlrichs, J. Chem. Phys. 97, 2571 (1992).

The def2-TZV basis will be loaded
Cite in your paper:
 	F. Weigend, R. Ahlrichs, Phys. Chem. Chem. Phys. 2005, 7, 3297.

================================================================================
                                        WARNINGS
                       Please study these warnings very carefully!
================================================================================
Now building the actual basis set


INFO   : the flag for use of LIBINT has been found!

================================================================================
                                       INPUT FILE
================================================================================
NAME = dsgdb9nsd_017544.inp
|  1> ! RI-MP2 RIJK def2-TZVP def2-TZVP/C def2-TZVP/JK TIGHTSCF
|  2> % maxcore 2000
|  3> % mp2 density relaxed end
|  4> *xyz 0 1
|  5>  C        0.0597327285     1.4802385107     0.7351246344 
|  6>  C        1.2124996910     0.8534208076     0.0389871353 
|  7>  C        2.1716473781     0.0146404351     0.8706364954 
|  8>  C        1.2362721736    -0.8641280852     1.7000805461 
|  9>  C        1.7324251598    -1.9944913159     2.5545071172 
| 10>  C        1.1833733316    -0.7475854772     3.2052516245 
| 11>  C       -0.0438028570    -0.9766181980     0.8662087232 
| 12>  N       -0.1243162257     0.2171384741     0.0029601159 
| 13>  H        0.0429367805     1.4621311052     1.8218380792 
| 14>  H       -0.4416223912     2.3338008153     0.2880092342 
| 15>  H        1.5702884563     1.2730519799    -0.8970070911 
| 16>  H        2.7940290644    -0.5951989885     0.2035222922 
| 17>  H        2.8461194787     0.6165829587     1.4883969368 
| 18>  H        1.1352868264    -2.9001047626     2.6001128339 
| 19>  H        2.8025758598    -2.1688691369     2.6034855809 
| 20>  H        1.8830294120    -0.0755425728     3.6926360388 
| 21>  H        0.2146789342    -0.8106795328     3.6917944630 
| 22>  H        0.0009404912    -1.8506764492     0.2045618185 
| 23>  H       -0.9470675022    -1.0691052674     1.4790419017 
| 24> *
| 25> 
| 26>                          ****END OF INPUT****
================================================================================

                       ****************************
                       * Single Point Calculation *
                       ****************************

---------------------------------
CARTESIAN COORDINATES (ANGSTROEM)
---------------------------------
  C      0.059733    1.480239    0.735125
  C      1.212500    0.853421    0.038987
  C      2.171647    0.014640    0.870636
  C      1.236272   -0.864128    1.700081
  C      1.732425   -1.994491    2.554507
  C      1.183373   -0.747585    3.205252
  C     -0.043803   -0.976618    0.866209
  N     -0.124316    0.217138    0.002960
  H      0.042937    1.462131    1.821838
  H     -0.441622    2.333801    0.288009
  H      1.570288    1.273052   -0.897007
  H      2.794029   -0.595199    0.203522
  H      2.846119    0.616583    1.488397
  H      1.135287   -2.900105    2.600113
  H      2.802576   -2.168869    2.603486
  H      1.883029   -0.075543    3.692636
  H      0.214679   -0.810680    3.691794
  H      0.000940   -1.850676    0.204562
  H     -0.947068   -1.069105    1.479042

----------------------------
CARTESIAN COORDINATES (A.U.)
----------------------------
  NO LB      ZA    FRAG    MASS        X           Y           Z
   0 C     6.0000    0    12.011          0.112878498096873          2.797245398106462          1.389184233314986
   1 C     6.0000    0    12.011          2.291292353454142          1.612731603353901          0.073675008463134
   2 C     6.0000    0    12.011          4.103818804057135          0.027666412820448          1.645264538502990
   3 C     6.0000    0    12.011          2.336215835091550         -1.632965425657770          3.212686637736283
   4 C     6.0000    0    12.011          3.273809099536761         -3.769042363535217          4.827318858660678
   5 C     6.0000    0    12.011          2.236251510909979         -1.412731813604830          6.057047760611196
   6 C     6.0000    0    12.011         -0.082775403613315         -1.845540931623679          1.636897261661600
   7 N     7.0000    0    14.007         -0.234923620575743          0.410332249186553          0.005593808375666
   8 H     1.0000    0     1.008          0.081138756217290          2.763027360715603          3.442775030037135
   9 H     1.0000    0     1.008         -0.834545373975435          4.410244392039134          0.544258576678386
  10 H     1.0000    0     1.008          2.967415133664969          2.405719596257222         -1.695097742364351
  11 H     1.0000    0     1.008          5.279949741932224         -1.124763083451944          0.384601394405897
  12 H     1.0000    0     1.008          5.378386359161719          1.165172930785878          2.812662589119298
  13 H     1.0000    0     1.008          2.145381185344599         -5.480403760994707          4.913501173364876
  14 H     1.0000    0     1.008          5.296100844560882         -4.098568689055159          4.919874741513881
  15 H     1.0000    0     1.008          3.558409890798768         -0.142754774043809          6.978070825579809
  16 H     1.0000    0     1.008          0.405684392360101         -1.531962299367231          6.976480477796874
  17 H     1.0000    0     1.008          0.001777270799363         -3.497271651485826          0.386565814421906
  18 H     1.0000    0     1.008         -1.789698209494863         -2.020316163718648          2.794984134807077

--------------------------------
INTERNAL COORDINATES (ANGSTROEM)
--------------------------------
 C      0   0   0   0.000000     0.000     0.000
 C      1   0   0   1.485389     0.000     0.000
 C      2   1   0   1.521564   117.754     0.000
 C      3   2   1   1.528116   103.169    46.527
 C      4   3   2   1.501311   122.656   171.854
 C      5   4   3   1.509868    60.220   109.975
 C      4   3   2   1.531858   104.967    26.389
 N      1   2   3   1.471516    60.110   261.781
 H      1   2   3   1.086994   118.262    10.513
 H      1   2   3   1.086203   119.795   159.163
 H      2   1   3   1.086365   119.761   202.954
 H      3   2   1   1.097408   109.365   164.656
 H      3   2   1   1.094932   113.180   284.352
 H      5   4   3   1.085721   118.045   218.014
 H      5   4   3   1.085370   118.196     1.918
 H      6   5   4   1.085681   118.056   252.054
 H      6   5   4   1.085852   118.004   108.027
 H      7   4   3   1.097158   110.652    90.935
 H      7   4   3   1.095448   112.998   211.772

---------------------------
INTERNAL COORDINATES (A.U.)
---------------------------
 C      0   0   0   0.000000     0.000     0.000
 C      1   0   0   2.806978     0.000     0.000
 C      2   1   0   2.875340   117.754     0.000
 C      3   2   1   2.887721   103.169    46.527
 C      4   3   2   2.837066   122.656   171.854
 C      5   4   3   2.853236    60.220   109.975
 C      4   3   2   2.894792   104.967    26.389
 N      1   2   3   2.780763    60.110   261.781
 H      1   2   3   2.054121   118.262    10.513
 H      1   2   3   2.052627   119.795   159.163
 H      2   1   3   2.052932   119.761   202.954
 H      3   2   1   2.073801   109.365   164.656
 H      3   2   1   2.069121   113.180   284.352
 H      5   4   3   2.051715   118.045   218.014
 H      5   4   3   2.051053   118.196     1.918
 H      6   5   4   2.051640   118.056   252.054
 H      6   5   4   2.051962   118.004   108.027
 H      7   4   3   2.073329   110.652    90.935
 H      7   4   3   2.070096   112.998   211.772

---------------------
BASIS SET INFORMATION
---------------------
There are 3 groups of distinct atoms

 Group   1 Type C   : 11s6p2d1f contracted to 5s3p2d1f pattern {62111/411/11/1}
 Group   2 Type N   : 11s6p2d1f contracted to 5s3p2d1f pattern {62111/411/11/1}
 Group   3 Type H   : 5s1p contracted to 3s1p pattern {311/1}

Atom   0C    basis set group =>   1
Atom   1C    basis set group =>   1
Atom   2C    basis set group =>   1
Atom   3C    basis set group =>   1
Atom   4C    basis set group =>   1
Atom   5C    basis set group =>   1
Atom   6C    basis set group =>   1
Atom   7N    basis set group =>   2
Atom   8H    basis set group =>   3
Atom   9H    basis set group =>   3
Atom  10H    basis set group =>   3
Atom  11H    basis set group =>   3
Atom  12H    basis set group =>   3
Atom  13H    basis set group =>   3
Atom  14H    basis set group =>   3
Atom  15H    basis set group =>   3
Atom  16H    basis set group =>   3
Atom  17H    basis set group =>   3
Atom  18H    basis set group =>   3
-------------------------------
AUXILIARY BASIS SET INFORMATION
-------------------------------
There are 3 groups of distinct atoms

 Group   1 Type C   : 14s10p6d2f1g contracted to 10s8p5d1f1g pattern {5111111111/31111111/21111/2/1}
 Group   2 Type N   : 14s10p6d2f1g contracted to 10s8p4d2f1g pattern {5111111111/31111111/3111/11/1}
 Group   3 Type H   : 4s2p2d contracted to 2s2p2d pattern {31/11/11}

Atom   0C    basis set group =>   1
Atom   1C    basis set group =>   1
Atom   2C    basis set group =>   1
Atom   3C    basis set group =>   1
Atom   4C    basis set group =>   1
Atom   5C    basis set group =>   1
Atom   6C    basis set group =>   1
Atom   7N    basis set group =>   2
Atom   8H    basis set group =>   3
Atom   9H    basis set group =>   3
Atom  10H    basis set group =>   3
Atom  11H    basis set group =>   3
Atom  12H    basis set group =>   3
Atom  13H    basis set group =>   3
Atom  14H    basis set group =>   3
Atom  15H    basis set group =>   3
Atom  16H    basis set group =>   3
Atom  17H    basis set group =>   3
Atom  18H    basis set group =>   3
------------------------------------------------------------------------------
                           ORCA GTO INTEGRAL CALCULATION
                           -- RI-GTO INTEGRALS CHOSEN --
------------------------------------------------------------------------------

                         BASIS SET STATISTICS AND STARTUP INFO

Gaussian basis set:
 # of primitive gaussian shells          ...  226
 # of primitive gaussian functions       ...  456
 # of contracted shells                  ...  132
 # of contracted basis functions         ...  314
 Highest angular momentum                ...    3
 Maximum contraction depth               ...    6
Auxiliary gaussian basis set:
 # of primitive gaussian shells          ...  352
 # of primitive gaussian functions       ...  996
 # of contracted shells                  ...  266
 # of contracted aux-basis functions     ...  800
 Highest angular momentum                ...    4
 Maximum contraction depth               ...    5
Ratio of auxiliary to basis functions    ...  2.55
Integral package used                  ... LIBINT
 One Electron integrals                  ... done
 Ordering auxiliary basis shells         ... done
 Integral threshhold             Thresh  ...  2.500e-11
 Primitive cut-off               TCut    ...  2.500e-12
 Pre-screening matrix                    ... done
 Shell pair data                         ... 
 Ordering of the shell pairs             ... done (   0.002 sec) 8333 of 8778 pairs
 Determination of significant pairs      ... done (   0.000 sec)
 Creation of shell pair data             ... done (   0.002 sec)
 Storage of shell pair data              ... done (   0.001 sec)
 Shell pair data done in (   0.005 sec)
 Computing two index integrals           ... done
 Cholesky decomposition of the V-matrix  ... done


Timings:
 Total evaluation time                   ...   0.347 sec (  0.006 min)
 One electron matrix time                ...   0.086 sec (  0.001 min) = 24.7%
 Schwartz matrix evaluation time         ...   0.183 sec (  0.003 min) = 52.7%
 Two index repulsion integral time       ...   0.019 sec (  0.000 min) =  5.6%
 Cholesky decomposition of V             ...   0.026 sec (  0.000 min) =  7.6%
 Three index repulsion integral time     ...   0.000 sec (  0.000 min) =  0.0%

-------------------------------------------------------------------------------
                                 ORCA SCF
-------------------------------------------------------------------------------

------------
SCF SETTINGS
------------
Hamiltonian:
 Ab initio Hamiltonian  Method          .... Hartree-Fock(GTOs)
 RI-approximation to the Coulomb term is turned on
   Number of auxiliary basis functions  .... 800
   RI-JK (J+K treated both via RI)      .... on


General Settings:
 Integral files         IntName         .... dsgdb9nsd_017544
 Hartree-Fock type      HFTyp           .... RHF
 Total Charge           Charge          ....    0
 Multiplicity           Mult            ....    1
 Number of Electrons    NEL             ....   60
 Basis Dimension        Dim             ....  314
 Nuclear Repulsion      ENuc            ....    384.8078615817 Eh

Convergence Acceleration:
 DIIS                   CNVDIIS         .... on
   Start iteration      DIISMaxIt       ....    12
   Startup error        DIISStart       ....  0.200000
   # of expansion vecs  DIISMaxEq       ....     5
   Bias factor          DIISBfac        ....   1.050
   Max. coefficient     DIISMaxC        ....  10.000
 Newton-Raphson         CNVNR           .... off
 SOSCF                  CNVSOSCF        .... on
   Start iteration      SOSCFMaxIt      ....   150
   Startup grad/error   SOSCFStart      ....  0.003300
 Level Shifting         CNVShift        .... on
   Level shift para.    LevelShift      ....    0.2500
   Turn off err/grad.   ShiftErr        ....    0.0010
 Zerner damping         CNVZerner       .... off
 Static damping         CNVDamp         .... on
   Fraction old density DampFac         ....    0.7000
   Max. Damping (<1)    DampMax         ....    0.9800
   Min. Damping (>=0)   DampMin         ....    0.0000
   Turn off err/grad.   DampErr         ....    0.1000
 Fernandez-Rico         CNVRico         .... off

SCF Procedure:
 Maximum # iterations   MaxIter         ....   125
 SCF integral mode      SCFMode         .... Direct
   Integral package                     .... LIBINT
 Reset frequeny         DirectResetFreq ....    20
 Integral Threshold     Thresh          ....  2.500e-11 Eh
 Primitive CutOff       TCut            ....  2.500e-12 Eh

Convergence Tolerance:
 Convergence Check Mode ConvCheckMode   .... Total+1el-Energy
 Energy Change          TolE            ....  1.000e-08 Eh
 1-El. energy change                    ....  1.000e-05 Eh
 Orbital Gradient       TolG            ....  1.000e-05
 Orbital Rotation angle TolX            ....  1.000e-05
 DIIS Error             TolErr          ....  5.000e-07


Diagonalization of the overlap matrix:
Smallest eigenvalue                        ... 6.515e-05
Time for diagonalization                   ...    0.026 sec
Threshold for overlap eigenvalues          ... 1.000e-08
Number of eigenvalues below threshold      ... 0
Time for construction of square roots      ...    0.013 sec
Total time needed                          ...    0.040 sec

-------------------
DFT GRID GENERATION
-------------------

General Integration Accuracy     IntAcc      ...  4.340
Radial Grid Type                 RadialGrid  ... Gauss-Chebyshev
Angular Grid (max. acc.)         AngularGrid ... Lebedev-110
Angular grid pruning method      GridPruning ... 3 (G Style)
Weight generation scheme         WeightScheme... Becke
Basis function cutoff            BFCut       ...    1.0000e-11
Integration weight cutoff        WCut        ...    1.0000e-14
Grids for H and He will be reduced by one unit

# of grid points (after initial pruning)     ...  22028 (   0.0 sec)
# of grid points (after weights+screening)   ...  19997 (   0.1 sec)
nearest neighbour list constructed           ...    0.0 sec
Grid point re-assignment to atoms done       ...    0.0 sec
Grid point division into batches done        ...    0.0 sec
Reduced shell lists constructed in    1.2 sec

Total number of grid points                  ...    19997
Total number of batches                      ...      320
Average number of points per batch           ...       62
Average number of grid points per atom       ...     1052
Average number of shells per batch           ...    95.61 (72.43%)
Average number of basis functions per batch  ...   236.47 (75.31%)
Average number of large shells per batch     ...    75.66 (79.13%)
Average number of large basis fcns per batch ...   184.70 (78.11%)
Average number of aux-shells per batch       ...    95.61 (35.94%)
Average number of aux functions per batch    ...   236.47 (  inf%)
Maximum spatial batch extension              ...  19.33, 19.46, 23.59 au
Average spatial batch extension              ...   3.66,  3.44,  3.71 au

Time for grid setup =    1.288 sec

------------------------------
INITIAL GUESS: MODEL POTENTIAL
------------------------------
Loading Hartree-Fock densities                     ... done
Calculating cut-offs                               ... done
Setting up the integral package                    ... done
Initializing the effective Hamiltonian             ... done
Starting the Coulomb interaction                   ... done (   0.6 sec)
Reading the grid                                   ... done
Mapping shells                                     ... done
Starting the XC term evaluation                    ... done (   0.7 sec)
Transforming the Hamiltonian                       ... done (   0.0 sec)
Diagonalizing the Hamiltonian                      ... done (   0.1 sec)
Back transforming the eigenvectors                 ... done (   0.0 sec)
Now organizing SCF variables                       ... done
                      ------------------
                      INITIAL GUESS DONE (   2.8 sec)
                      ------------------
--------------
SCF ITERATIONS
--------------
ITER       Energy         Delta-E        Max-DP      RMS-DP      [F,P]     Damp
  0   -325.6007972739   0.000000000000 0.03009756  0.00082165  0.2584241 0.7000
  1   -325.5054714217   0.095325852207 0.03029357  0.00086474  0.2178880 0.7000
                               ***Turning on DIIS***
  2   -325.5459863128  -0.040514891137 0.02138399  0.00063612  0.1581842 0.7000
  3   -326.6774006116  -1.131414298805 0.01107687  0.00034783  0.1105071 0.7000
  4   -325.9126539478   0.764746663892 0.03546512  0.00080253  0.0740016 0.0000
  5   -325.9889370008  -0.076283053034 0.00877533  0.00019028  0.0153287 0.0000
  6   -325.8612397416   0.127697259178 0.00507894  0.00010731  0.0086691 0.0000
  7   -325.8902961189  -0.029056377313 0.00216636  0.00005317  0.0058593 0.0000
                      *** Initiating the SOSCF procedure ***
                           *** Shutting down DIIS ***
                      *** Re-Reading the Fockian *** 
                      *** Removing any level shift *** 
ITER      Energy       Delta-E        Grad      Rot      Max-DP    RMS-DP
  8   -325.88632076   0.0039753540  0.000839  0.000839  0.001408  0.000041
  9   -325.95920885  -0.0728880900  0.000109  0.000196  0.000561  0.000013
 10   -325.95920994  -0.0000010881  0.000057  0.000054  0.000198  0.000005
 11   -325.95921020  -0.0000002541  0.000008  0.000013  0.000048  0.000001
 12   -325.95921021  -0.0000000101  0.000003  0.000006  0.000016  0.000000
                  ***Gradient check signals convergence***
              ***Rediagonalizing the Fockian in SOSCF/NRSCF***

               *****************************************************
               *                     SUCCESS                       *
               *           SCF CONVERGED AFTER  13 CYCLES          *
               *****************************************************


----------------
TOTAL SCF ENERGY
----------------

Total Energy       :         -325.95921021 Eh           -8869.80104 eV

Components:
Nuclear Repulsion  :          384.80786158 Eh           10471.15426 eV
Electronic Energy  :         -710.76707179 Eh          -19340.95530 eV

One Electron Energy:        -1203.32327094 Eh          -32744.09088 eV
Two Electron Energy:          492.55619915 Eh           13403.13558 eV

Virial components:
Potential Energy   :         -651.45149670 Eh          -17726.89644 eV
Kinetic Energy     :          325.49228649 Eh            8857.09540 eV
Virial Ratio       :            2.00143452


---------------
SCF CONVERGENCE
---------------

  Last Energy change         ...   -1.4729e-09  Tolerance :   1.0000e-08
  Last MAX-Density change    ...    7.2181e-06  Tolerance :   1.0000e-07
  Last RMS-Density change    ...    1.4842e-07  Tolerance :   5.0000e-09
  Last Orbital Gradient      ...    9.5702e-07  Tolerance :   1.0000e-05
  Last Orbital Rotation      ...    1.1085e-06  Tolerance :   1.0000e-05

             **** THE GBW FILE WAS UPDATED (dsgdb9nsd_017544.gbw) ****
             **** DENSITY FILE WAS UPDATED (dsgdb9nsd_017544.scfp.tmp) ****
             **** ENERGY FILE WAS UPDATED (dsgdb9nsd_017544.en.tmp) ****
----------------
ORBITAL ENERGIES
----------------

  NO   OCC          E(Eh)            E(eV) 
   0   2.0000     -15.551724      -423.1839 
   1   2.0000     -11.252560      -306.1977 
   2   2.0000     -11.247075      -306.0485 
   3   2.0000     -11.245204      -305.9976 
   4   2.0000     -11.236919      -305.7721 
   5   2.0000     -11.228296      -305.5375 
   6   2.0000     -11.226634      -305.4922 
   7   2.0000     -11.225933      -305.4732 
   8   2.0000      -1.276198       -34.7271 
   9   2.0000      -1.146963       -31.2105 
  10   2.0000      -0.994054       -27.0496 
  11   2.0000      -0.983987       -26.7756 
  12   2.0000      -0.837020       -22.7765 
  13   2.0000      -0.826039       -22.4777 
  14   2.0000      -0.781380       -21.2624 
  15   2.0000      -0.746919       -20.3247 
  16   2.0000      -0.679525       -18.4908 
  17   2.0000      -0.641890       -17.4667 
  18   2.0000      -0.630933       -17.1686 
  19   2.0000      -0.612067       -16.6552 
  20   2.0000      -0.575421       -15.6580 
  21   2.0000      -0.561383       -15.2760 
  22   2.0000      -0.519100       -14.1254 
  23   2.0000      -0.514713       -14.0061 
  24   2.0000      -0.482471       -13.1287 
  25   2.0000      -0.456958       -12.4344 
  26   2.0000      -0.444640       -12.0993 
  27   2.0000      -0.419343       -11.4109 
  28   2.0000      -0.395316       -10.7571 
  29   2.0000      -0.364777        -9.9261 
  30   0.0000       0.140893         3.8339 
  31   0.0000       0.159239         4.3331 
  32   0.0000       0.164665         4.4808 
  33   0.0000       0.172951         4.7062 
  34   0.0000       0.192519         5.2387 
  35   0.0000       0.198965         5.4141 
  36   0.0000       0.205099         5.5810 
  37   0.0000       0.210942         5.7400 
  38   0.0000       0.215225         5.8566 
  39   0.0000       0.236022         6.4225 
  40   0.0000       0.240005         6.5309 
  41   0.0000       0.248169         6.7530 
  42   0.0000       0.261651         7.1199 
  43   0.0000       0.262645         7.1469 
  44   0.0000       0.281154         7.6506 
  45   0.0000       0.293642         7.9904 
  46   0.0000       0.302135         8.2215 
  47   0.0000       0.340360         9.2617 
  48   0.0000       0.352295         9.5864 
  49   0.0000       0.355017         9.6605 
  50   0.0000       0.358034         9.7426 
  51   0.0000       0.367211         9.9923 
  52   0.0000       0.386242        10.5102 
  53   0.0000       0.409003        11.1295 
  54   0.0000       0.420863        11.4523 
  55   0.0000       0.423265        11.5176 
  56   0.0000       0.434109        11.8127 
  57   0.0000       0.449893        12.2422 
  58   0.0000       0.459956        12.5160 
  59   0.0000       0.511001        13.9050 
  60   0.0000       0.519226        14.1289 
  61   0.0000       0.525050        14.2873 
  62   0.0000       0.532860        14.4999 
  63   0.0000       0.544936        14.8285 
  64   0.0000       0.548137        14.9156 
  65   0.0000       0.555949        15.1281 
  66   0.0000       0.572481        15.5780 
  67   0.0000       0.578734        15.7481 
  68   0.0000       0.583443        15.8763 
  69   0.0000       0.597787        16.2666 
  70   0.0000       0.598915        16.2973 
  71   0.0000       0.609956        16.5977 
  72   0.0000       0.624626        16.9969 
  73   0.0000       0.631713        17.1898 
  74   0.0000       0.637267        17.3409 
  75   0.0000       0.648315        17.6415 
  76   0.0000       0.658269        17.9124 
  77   0.0000       0.660088        17.9619 
  78   0.0000       0.666130        18.1263 
  79   0.0000       0.685734        18.6598 
  80   0.0000       0.692326        18.8391 
  81   0.0000       0.708160        19.2700 
  82   0.0000       0.712604        19.3909 
  83   0.0000       0.714231        19.4352 
  84   0.0000       0.728233        19.8162 
  85   0.0000       0.756478        20.5848 
  86   0.0000       0.787381        21.4257 
  87   0.0000       0.799551        21.7569 
  88   0.0000       0.822923        22.3929 
  89   0.0000       0.860404        23.4128 
  90   0.0000       0.869244        23.6533 
  91   0.0000       0.913133        24.8476 
  92   0.0000       0.942524        25.6474 
  93   0.0000       0.979877        26.6638 
  94   0.0000       1.006413        27.3859 
  95   0.0000       1.046531        28.4776 
  96   0.0000       1.073069        29.1997 
  97   0.0000       1.086685        29.5702 
  98   0.0000       1.095340        29.8057 
  99   0.0000       1.106348        30.1053 
 100   0.0000       1.126512        30.6540 
 101   0.0000       1.141120        31.0515 
 102   0.0000       1.153947        31.4005 
 103   0.0000       1.171132        31.8681 
 104   0.0000       1.177366        32.0378 
 105   0.0000       1.196958        32.5709 
 106   0.0000       1.211930        32.9783 
 107   0.0000       1.239492        33.7283 
 108   0.0000       1.242682        33.8151 
 109   0.0000       1.279243        34.8100 
 110   0.0000       1.289544        35.0903 
 111   0.0000       1.298330        35.3293 
 112   0.0000       1.314328        35.7647 
 113   0.0000       1.326715        36.1017 
 114   0.0000       1.334146        36.3040 
 115   0.0000       1.345840        36.6222 
 116   0.0000       1.382797        37.6278 
 117   0.0000       1.405493        38.2454 
 118   0.0000       1.417237        38.5650 
 119   0.0000       1.437710        39.1221 
 120   0.0000       1.447084        39.3772 
 121   0.0000       1.450363        39.4664 
 122   0.0000       1.485183        40.4139 
 123   0.0000       1.522504        41.4294 
 124   0.0000       1.547373        42.1062 
 125   0.0000       1.574219        42.8367 
 126   0.0000       1.581398        43.0320 
 127   0.0000       1.629226        44.3335 
 128   0.0000       1.683012        45.7971 
 129   0.0000       1.700063        46.2611 
 130   0.0000       1.724982        46.9391 
 131   0.0000       1.737712        47.2855 
 132   0.0000       1.773878        48.2697 
 133   0.0000       1.788913        48.6788 
 134   0.0000       1.806379        49.1541 
 135   0.0000       1.813902        49.3588 
 136   0.0000       1.850850        50.3642 
 137   0.0000       1.860847        50.6362 
 138   0.0000       1.890472        51.4424 
 139   0.0000       1.904670        51.8287 
 140   0.0000       1.910150        51.9778 
 141   0.0000       1.916146        52.1410 
 142   0.0000       1.936904        52.7058 
 143   0.0000       1.944603        52.9154 
 144   0.0000       1.980369        53.8886 
 145   0.0000       1.999796        54.4172 
 146   0.0000       2.022068        55.0233 
 147   0.0000       2.034530        55.3624 
 148   0.0000       2.046739        55.6946 
 149   0.0000       2.059364        56.0381 
 150   0.0000       2.065669        56.2097 
 151   0.0000       2.128831        57.9284 
 152   0.0000       2.146655        58.4135 
 153   0.0000       2.167604        58.9835 
 154   0.0000       2.184046        59.4309 
 155   0.0000       2.189808        59.5877 
 156   0.0000       2.224904        60.5427 
 157   0.0000       2.257618        61.4329 
 158   0.0000       2.272937        61.8498 
 159   0.0000       2.298955        62.5577 
 160   0.0000       2.326530        63.3081 
 161   0.0000       2.352533        64.0157 
 162   0.0000       2.379274        64.7434 
 163   0.0000       2.399277        65.2877 
 164   0.0000       2.420772        65.8725 
 165   0.0000       2.442091        66.4527 
 166   0.0000       2.461438        66.9791 
 167   0.0000       2.470923        67.2372 
 168   0.0000       2.498439        67.9860 
 169   0.0000       2.512246        68.3617 
 170   0.0000       2.548690        69.3534 
 171   0.0000       2.577772        70.1447 
 172   0.0000       2.614964        71.1568 
 173   0.0000       2.626161        71.4615 
 174   0.0000       2.651214        72.1432 
 175   0.0000       2.689929        73.1967 
 176   0.0000       2.709906        73.7403 
 177   0.0000       2.733043        74.3699 
 178   0.0000       2.747639        74.7671 
 179   0.0000       2.769101        75.3511 
 180   0.0000       2.789731        75.9124 
 181   0.0000       2.814964        76.5991 
 182   0.0000       2.825460        76.8847 
 183   0.0000       2.833241        77.0964 
 184   0.0000       2.848353        77.5076 
 185   0.0000       2.865279        77.9682 
 186   0.0000       2.875909        78.2575 
 187   0.0000       2.881966        78.4223 
 188   0.0000       2.895746        78.7972 
 189   0.0000       2.910970        79.2115 
 190   0.0000       2.920994        79.4843 
 191   0.0000       2.934928        79.8634 
 192   0.0000       2.946760        80.1854 
 193   0.0000       2.949775        80.2674 
 194   0.0000       2.965459        80.6942 
 195   0.0000       2.986884        81.2772 
 196   0.0000       2.994948        81.4967 
 197   0.0000       3.001250        81.6682 
 198   0.0000       3.017316        82.1054 
 199   0.0000       3.040567        82.7380 
 200   0.0000       3.047955        82.9391 
 201   0.0000       3.101405        84.3935 
 202   0.0000       3.104696        84.4831 
 203   0.0000       3.122558        84.9691 
 204   0.0000       3.153144        85.8014 
 205   0.0000       3.201240        87.1102 
 206   0.0000       3.211628        87.3928 
 207   0.0000       3.214311        87.4658 
 208   0.0000       3.247461        88.3679 
 209   0.0000       3.252887        88.5156 
 210   0.0000       3.301315        89.8333 
 211   0.0000       3.330536        90.6285 
 212   0.0000       3.344228        91.0011 
 213   0.0000       3.374799        91.8330 
 214   0.0000       3.385405        92.1215 
 215   0.0000       3.391754        92.2943 
 216   0.0000       3.405480        92.6678 
 217   0.0000       3.409836        92.7864 
 218   0.0000       3.435252        93.4779 
 219   0.0000       3.454032        93.9890 
 220   0.0000       3.472071        94.4799 
 221   0.0000       3.489987        94.9674 
 222   0.0000       3.501234        95.2734 
 223   0.0000       3.519761        95.7776 
 224   0.0000       3.527747        95.9949 
 225   0.0000       3.562580        96.9427 
 226   0.0000       3.570446        97.1568 
 227   0.0000       3.615216        98.3750 
 228   0.0000       3.625865        98.6648 
 229   0.0000       3.639302        99.0304 
 230   0.0000       3.663722        99.6950 
 231   0.0000       3.668811        99.8334 
 232   0.0000       3.675771       100.0228 
 233   0.0000       3.719161       101.2035 
 234   0.0000       3.730669       101.5167 
 235   0.0000       3.745951       101.9325 
 236   0.0000       3.767530       102.5197 
 237   0.0000       3.794167       103.2445 
 238   0.0000       3.820427       103.9591 
 239   0.0000       3.841583       104.5348 
 240   0.0000       3.844258       104.6076 
 241   0.0000       3.860057       105.0375 
 242   0.0000       3.869574       105.2965 
 243   0.0000       3.929446       106.9257 
 244   0.0000       3.938951       107.1843 
 245   0.0000       3.966820       107.9426 
 246   0.0000       3.988156       108.5232 
 247   0.0000       3.992127       108.6313 
 248   0.0000       4.036994       109.8522 
 249   0.0000       4.058585       110.4397 
 250   0.0000       4.065082       110.6165 
 251   0.0000       4.120169       112.1155 
 252   0.0000       4.138919       112.6257 
 253   0.0000       4.163508       113.2948 
 254   0.0000       4.172235       113.5323 
 255   0.0000       4.195375       114.1620 
 256   0.0000       4.216064       114.7249 
 257   0.0000       4.266755       116.1043 
 258   0.0000       4.288952       116.7083 
 259   0.0000       4.314753       117.4104 
 260   0.0000       4.337065       118.0175 
 261   0.0000       4.358931       118.6126 
 262   0.0000       4.374608       119.0391 
 263   0.0000       4.431409       120.5848 
 264   0.0000       4.444060       120.9290 
 265   0.0000       4.478127       121.8560 
 266   0.0000       4.495004       122.3153 
 267   0.0000       4.511847       122.7736 
 268   0.0000       4.556239       123.9816 
 269   0.0000       4.569089       124.3312 
 270   0.0000       4.578113       124.5768 
 271   0.0000       4.598979       125.1446 
 272   0.0000       4.628359       125.9441 
 273   0.0000       4.674762       127.2067 
 274   0.0000       4.699316       127.8749 
 275   0.0000       4.741296       129.0172 
 276   0.0000       4.785673       130.2248 
 277   0.0000       4.801512       130.6558 
 278   0.0000       4.814785       131.0170 
 279   0.0000       4.870812       132.5415 
 280   0.0000       4.888718       133.0288 
 281   0.0000       4.940411       134.4354 
 282   0.0000       4.988802       135.7522 
 283   0.0000       5.003813       136.1607 
 284   0.0000       5.041005       137.1727 
 285   0.0000       5.093847       138.6106 
 286   0.0000       5.121448       139.3617 
 287   0.0000       5.134188       139.7084 
 288   0.0000       5.184295       141.0718 
 289   0.0000       5.217084       141.9641 
 290   0.0000       5.281230       143.7096 
 291   0.0000       5.315815       144.6507 
 292   0.0000       5.330931       145.0620 
 293   0.0000       5.397921       146.8849 
 294   0.0000       5.481619       149.1624 
 295   0.0000       5.515770       150.0917 
 296   0.0000       5.580211       151.8452 
 297   0.0000       5.618242       152.8801 
 298   0.0000       5.646291       153.6434 
 299   0.0000       5.679107       154.5364 
 300   0.0000       5.785483       157.4310 
 301   0.0000       5.823885       158.4760 
 302   0.0000       5.851829       159.2364 
 303   0.0000       6.027825       164.0254 
 304   0.0000       6.216447       169.1581 
 305   0.0000       6.329970       172.2472 
 306   0.0000      23.453276       638.1961 
 307   0.0000      23.513858       639.8446 
 308   0.0000      23.577853       641.5860 
 309   0.0000      23.588726       641.8819 
 310   0.0000      23.700538       644.9244 
 311   0.0000      23.716399       645.3560 
 312   0.0000      23.970965       652.2831 
 313   0.0000      33.777242       919.1255 

                    ********************************
                    * MULLIKEN POPULATION ANALYSIS *
                    ********************************

-----------------------
MULLIKEN ATOMIC CHARGES
-----------------------
   0 C :   -0.145400
   1 C :   -0.005845
   2 C :   -0.181738
   3 C :    0.134711
   4 C :   -0.260675
   5 C :   -0.281646
   6 C :   -0.077052
   7 N :   -0.311156
   8 H :    0.114539
   9 H :    0.109476
  10 H :    0.106483
  11 H :    0.092835
  12 H :    0.092977
  13 H :    0.110613
  14 H :    0.110165
  15 H :    0.103425
  16 H :    0.106963
  17 H :    0.091934
  18 H :    0.089392
Sum of atomic charges:    0.0000000

--------------------------------
MULLIKEN REDUCED ORBITAL CHARGES
--------------------------------
  0 C s       :     3.203752  s :     3.203752
      pz      :     0.953269  p :     2.828087
      px      :     0.998929
      py      :     0.875889
      dz2     :     0.027417  d :     0.103096
      dxz     :     0.012234
      dyz     :     0.016043
      dx2y2   :     0.022303
      dxy     :     0.025099
      f0      :     0.001984  f :     0.010466
      f+1     :     0.000511
      f-1     :     0.001250
      f+2     :     0.001579
      f-2     :     0.001917
      f+3     :     0.001851
      f-3     :     0.001374
  1 C s       :     3.144223  s :     3.144223
      pz      :     0.956997  p :     2.712609
      px      :     0.788278
      py      :     0.967335
      dz2     :     0.017416  d :     0.136530
      dxz     :     0.038457
      dyz     :     0.022460
      dx2y2   :     0.022512
      dxy     :     0.035685
      f0      :     0.001151  f :     0.012483
      f+1     :     0.001907
      f-1     :     0.001305
      f+2     :     0.001567
      f-2     :     0.002166
      f+3     :     0.002300
      f-3     :     0.002088
  2 C s       :     3.141048  s :     3.141048
      pz      :     0.986080  p :     2.927147
      px      :     0.970035
      py      :     0.971031
      dz2     :     0.012629  d :     0.106702
      dxz     :     0.029826
      dyz     :     0.022677
      dx2y2   :     0.013715
      dxy     :     0.027855
      f0      :     0.000567  f :     0.006841
      f+1     :     0.000769
      f-1     :     0.000573
      f+2     :     0.000865
      f-2     :     0.002558
      f+3     :     0.000721
      f-3     :     0.000788
  3 C s       :     3.037196  s :     3.037196
      pz      :     0.820234  p :     2.672199
      px      :     0.892287
      py      :     0.959678
      dz2     :     0.031277  d :     0.143042
      dxz     :     0.033759
      dyz     :     0.029319
      dx2y2   :     0.023809
      dxy     :     0.024878
      f0      :     0.002062  f :     0.012852
      f+1     :     0.002118
      f-1     :     0.002509
      f+2     :     0.001975
      f-2     :     0.001909
      f+3     :     0.001124
      f-3     :     0.001154
  4 C s       :     3.229049  s :     3.229049
      pz      :     1.049818  p :     2.943113
      px      :     1.013049
      py      :     0.880247
      dz2     :     0.021386  d :     0.080279
      dxz     :     0.008345
      dyz     :     0.017534
      dx2y2   :     0.016723
      dxy     :     0.016291
      f0      :     0.000597  f :     0.008234
      f+1     :     0.000930
      f-1     :     0.001952
      f+2     :     0.000861
      f-2     :     0.000876
      f+3     :     0.002139
      f-3     :     0.000878
  5 C s       :     3.228933  s :     3.228933
      pz      :     0.916096  p :     2.959380
      px      :     1.037894
      py      :     1.005391
      dz2     :     0.019242  d :     0.085097
      dxz     :     0.018926
      dyz     :     0.020610
      dx2y2   :     0.012971
      dxy     :     0.013347
      f0      :     0.001708  f :     0.008236
      f+1     :     0.000989
      f-1     :     0.001867
      f+2     :     0.001061
      f-2     :     0.001123
      f+3     :     0.000835
      f-3     :     0.000653
  6 C s       :     3.196113  s :     3.196113
      pz      :     0.914957  p :     2.747918
      px      :     0.948039
      py      :     0.884923
      dz2     :     0.016726  d :     0.124213
      dxz     :     0.031855
      dyz     :     0.031624
      dx2y2   :     0.027060
      dxy     :     0.016948
      f0      :     0.000763  f :     0.008808
      f+1     :     0.000716
      f-1     :     0.001289
      f+2     :     0.002885
      f-2     :     0.001227
      f+3     :     0.000953
      f-3     :     0.000976
  7 N s       :     3.573834  s :     3.573834
      pz      :     1.404164  p :     3.647268
      px      :     1.244913
      py      :     0.998191
      dz2     :     0.012010  d :     0.085292
      dxz     :     0.007660
      dyz     :     0.027412
      dx2y2   :     0.022428
      dxy     :     0.015781
      f0      :     0.000545  f :     0.004762
      f+1     :     0.000368
      f-1     :     0.000651
      f+2     :     0.000851
      f-2     :     0.000685
      f+3     :     0.000786
      f-3     :     0.000875
  8 H s       :     0.862698  s :     0.862698
      pz      :     0.015731  p :     0.022763
      px      :     0.004024
      py      :     0.003008
  9 H s       :     0.867724  s :     0.867724
      pz      :     0.004968  p :     0.022800
      px      :     0.006800
      py      :     0.011032
 10 H s       :     0.870260  s :     0.870260
      pz      :     0.013010  p :     0.023257
      px      :     0.004489
      py      :     0.005758
 11 H s       :     0.885120  s :     0.885120
      pz      :     0.007556  p :     0.022045
      px      :     0.007604
      py      :     0.006885
 12 H s       :     0.884898  s :     0.884898
      pz      :     0.006942  p :     0.022125
      px      :     0.008219
      py      :     0.006964
 13 H s       :     0.866206  s :     0.866206
      pz      :     0.004692  p :     0.023181
      px      :     0.006411
      py      :     0.012078
 14 H s       :     0.866651  s :     0.866651
      pz      :     0.004692  p :     0.023185
      px      :     0.014951
      py      :     0.003542
 15 H s       :     0.873436  s :     0.873436
      pz      :     0.006456  p :     0.023139
      px      :     0.008086
      py      :     0.008596
 16 H s       :     0.869934  s :     0.869934
      pz      :     0.006434  p :     0.023103
      px      :     0.012678
      py      :     0.003991
 17 H s       :     0.886189  s :     0.886189
      pz      :     0.007510  p :     0.021877
      px      :     0.003443
      py      :     0.010924
 18 H s       :     0.888944  s :     0.888944
      pz      :     0.006649  p :     0.021664
      px      :     0.011851
      py      :     0.003165


                     *******************************
                     * LOEWDIN POPULATION ANALYSIS *
                     *******************************

----------------------
LOEWDIN ATOMIC CHARGES
----------------------
   0 C :   -0.217572
   1 C :   -0.219315
   2 C :   -0.176683
   3 C :   -0.238573
   4 C :   -0.189752
   5 C :   -0.195055
   6 C :   -0.206668
   7 N :    0.076831
   8 H :    0.121316
   9 H :    0.115545
  10 H :    0.127157
  11 H :    0.133023
  12 H :    0.131520
  13 H :    0.124241
  14 H :    0.123676
  15 H :    0.120770
  16 H :    0.120922
  17 H :    0.125375
  18 H :    0.123244

-------------------------------
LOEWDIN REDUCED ORBITAL CHARGES
-------------------------------
  0 C s       :     2.782209  s :     2.782209
      pz      :     1.003689  p :     2.944728
      px      :     1.021061
      py      :     0.919978
      dz2     :     0.113742  d :     0.433360
      dxz     :     0.055192
      dyz     :     0.088361
      dx2y2   :     0.078221
      dxy     :     0.097844
      f0      :     0.005499  f :     0.057274
      f+1     :     0.003653
      f-1     :     0.008475
      f+2     :     0.010092
      f-2     :     0.012413
      f+3     :     0.010565
      f-3     :     0.006577
  1 C s       :     2.734652  s :     2.734652
      pz      :     0.993171  p :     2.856213
      px      :     0.901480
      py      :     0.961562
      dz2     :     0.087313  d :     0.556934
      dxz     :     0.142662
      dyz     :     0.087574
      dx2y2   :     0.107682
      dxy     :     0.131703
      f0      :     0.006734  f :     0.071516
      f+1     :     0.011082
      f-1     :     0.006609
      f+2     :     0.008961
      f-2     :     0.009789
      f+3     :     0.017142
      f-3     :     0.011199
  2 C s       :     2.760521  s :     2.760521
      pz      :     0.996521  p :     2.978575
      px      :     0.988778
      py      :     0.993275
      dz2     :     0.047653  d :     0.397246
      dxz     :     0.112672
      dyz     :     0.084549
      dx2y2   :     0.048733
      dxy     :     0.103639
      f0      :     0.005266  f :     0.040342
      f+1     :     0.005992
      f-1     :     0.004716
      f+2     :     0.005578
      f-2     :     0.006438
      f+3     :     0.005771
      f-3     :     0.006581
  3 C s       :     2.671212  s :     2.671212
      pz      :     0.941229  p :     2.882226
      px      :     0.976195
      py      :     0.964802
      dz2     :     0.135744  d :     0.614326
      dxz     :     0.150064
      dyz     :     0.132726
      dx2y2   :     0.100521
      dxy     :     0.095271
      f0      :     0.009121  f :     0.070808
      f+1     :     0.014116
      f-1     :     0.016863
      f+2     :     0.009005
      f-2     :     0.008082
      f+3     :     0.006307
      f-3     :     0.007313
  4 C s       :     2.764394  s :     2.764394
      pz      :     1.038432  p :     3.018003
      px      :     1.008139
      py      :     0.971432
      dz2     :     0.081962  d :     0.365112
      dxz     :     0.032282
      dyz     :     0.060948
      dx2y2   :     0.097379
      dxy     :     0.092541
      f0      :     0.001935  f :     0.042243
      f+1     :     0.004773
      f-1     :     0.011047
      f+2     :     0.005640
      f-2     :     0.005756
      f+3     :     0.008574
      f-3     :     0.004517
  5 C s       :     2.768971  s :     2.768971
      pz      :     0.971512  p :     3.020238
      px      :     1.021321
      py      :     1.027406
      dz2     :     0.065487  d :     0.364297
      dxz     :     0.094109
      dyz     :     0.093421
      dx2y2   :     0.055850
      dxy     :     0.055429
      f0      :     0.006634  f :     0.041549
      f+1     :     0.006302
      f-1     :     0.013204
      f+2     :     0.003734
      f-2     :     0.003922
      f+3     :     0.003145
      f-3     :     0.004609
  6 C s       :     2.776241  s :     2.776241
      pz      :     0.975230  p :     2.899289
      px      :     0.995371
      py      :     0.928688
      dz2     :     0.060196  d :     0.476743
      dxz     :     0.107939
      dyz     :     0.133053
      dx2y2   :     0.111209
      dxy     :     0.064345
      f0      :     0.006899  f :     0.054395
      f+1     :     0.004977
      f-1     :     0.010293
      f+2     :     0.008469
      f-2     :     0.008114
      f+3     :     0.008030
      f-3     :     0.007612
  7 N s       :     3.030374  s :     3.030374
      pz      :     1.353750  p :     3.624730
      px      :     1.210290
      py      :     1.060690
      dz2     :     0.033637  d :     0.246984
      dxz     :     0.031118
      dyz     :     0.063656
      dx2y2   :     0.061609
      dxy     :     0.056964
      f0      :     0.001735  f :     0.021081
      f+1     :     0.001112
      f-1     :     0.004237
      f+2     :     0.003013
      f-2     :     0.003226
      f+3     :     0.004934
      f-3     :     0.002823
  8 H s       :     0.816660  s :     0.816660
      pz      :     0.038592  p :     0.062023
      px      :     0.013328
      py      :     0.010104
  9 H s       :     0.824128  s :     0.824128
      pz      :     0.015682  p :     0.060327
      px      :     0.018441
      py      :     0.026204
 10 H s       :     0.814158  s :     0.814158
      pz      :     0.031145  p :     0.058685
      px      :     0.011366
      py      :     0.016174
 11 H s       :     0.809802  s :     0.809802
      pz      :     0.020249  p :     0.057175
      px      :     0.018124
      py      :     0.018802
 12 H s       :     0.810756  s :     0.810756
      pz      :     0.019140  p :     0.057725
      px      :     0.019422
      py      :     0.019163
 13 H s       :     0.814378  s :     0.814378
      pz      :     0.014883  p :     0.061381
      px      :     0.019240
      py      :     0.027258
 14 H s       :     0.814934  s :     0.814934
      pz      :     0.014876  p :     0.061390
      px      :     0.035811
      py      :     0.010702
 15 H s       :     0.817812  s :     0.817812
      pz      :     0.016419  p :     0.061418
      px      :     0.022785
      py      :     0.022214
 16 H s       :     0.817673  s :     0.817673
      pz      :     0.016367  p :     0.061405
      px      :     0.031810
      py      :     0.013228
 17 H s       :     0.818140  s :     0.818140
      pz      :     0.019657  p :     0.056485
      px      :     0.011611
      py      :     0.025218
 18 H s       :     0.819793  s :     0.819793
      pz      :     0.018679  p :     0.056963
      px      :     0.027963
      py      :     0.010320


                      *****************************
                      * MAYER POPULATION ANALYSIS *
                      *****************************

  NA   - Mulliken gross atomic population
  ZA   - Total nuclear charge
  QA   - Mulliken gross atomic charge
  VA   - Mayer's total valence
  BVA  - Mayer's bonded valence
  FA   - Mayer's free valence

  ATOM       NA         ZA         QA         VA         BVA        FA
  0 C      6.1454     6.0000    -0.1454     3.9546     3.9546    -0.0000
  1 C      6.0058     6.0000    -0.0058     3.9167     3.9167    -0.0000
  2 C      6.1817     6.0000    -0.1817     3.9554     3.9554     0.0000
  3 C      5.8653     6.0000     0.1347     3.6439     3.6439     0.0000
  4 C      6.2607     6.0000    -0.2607     3.9141     3.9141     0.0000
  5 C      6.2816     6.0000    -0.2816     3.9459     3.9459    -0.0000
  6 C      6.0771     6.0000    -0.0771     3.9888     3.9888     0.0000
  7 N      7.3112     7.0000    -0.3112     2.8211     2.8211     0.0000
  8 H      0.8855     1.0000     0.1145     0.9567     0.9567     0.0000
  9 H      0.8905     1.0000     0.1095     0.9738     0.9738    -0.0000
 10 H      0.8935     1.0000     0.1065     0.9685     0.9685    -0.0000
 11 H      0.9072     1.0000     0.0928     0.9741     0.9741     0.0000
 12 H      0.9070     1.0000     0.0930     0.9712     0.9712     0.0000
 13 H      0.8894     1.0000     0.1106     0.9761     0.9761     0.0000
 14 H      0.8898     1.0000     0.1102     0.9749     0.9749     0.0000
 15 H      0.8966     1.0000     0.1034     0.9780     0.9780    -0.0000
 16 H      0.8930     1.0000     0.1070     0.9754     0.9754    -0.0000
 17 H      0.9081     1.0000     0.0919     0.9682     0.9682     0.0000
 18 H      0.9106     1.0000     0.0894     0.9701     0.9701     0.0000

  Mayer bond orders larger than 0.1
B(  0-C ,  1-C ) :   1.0114 B(  0-C ,  7-N ) :   0.9279 B(  0-C ,  8-H ) :   0.9710 
B(  0-C ,  9-H ) :   0.9804 B(  1-C ,  2-C ) :   0.9910 B(  1-C ,  7-N ) :   0.9537 
B(  1-C , 10-H ) :   0.9727 B(  2-C ,  3-C ) :   0.9686 B(  2-C , 11-H ) :   0.9852 
B(  2-C , 12-H ) :   0.9666 B(  3-C ,  4-C ) :   0.9126 B(  3-C ,  5-C ) :   0.9299 
B(  3-C ,  6-C ) :   0.9549 B(  4-C ,  5-C ) :   1.0223 B(  4-C , 13-H ) :   0.9779 
B(  4-C , 14-H ) :   0.9773 B(  5-C , 15-H ) :   0.9745 B(  5-C , 16-H ) :   0.9757 
B(  6-C ,  7-N ) :   0.9685 B(  6-C , 17-H ) :   0.9905 B(  6-C , 18-H ) :   0.9882 


-------
TIMINGS
-------

Total SCF time: 0 days 0 hours 2 min 8 sec 

Total time                  ....     128.946 sec
Sum of individual times     ....     132.892 sec  (103.1%)

Fock matrix formation       ....     127.511 sec  ( 98.9%)
Diagonalization             ....       0.497 sec  (  0.4%)
Density matrix formation    ....       0.042 sec  (  0.0%)
Population analysis         ....       0.199 sec  (  0.2%)
Initial guess               ....       2.833 sec  (  2.2%)
Orbital Transformation      ....       0.000 sec  (  0.0%)
Orbital Orthonormalization  ....       0.000 sec  (  0.0%)
DIIS solution               ....       0.162 sec  (  0.1%)
SOSCF solution              ....       0.360 sec  (  0.3%)

   <<< Auxbasis replaced with dsgdb9nsd_017544.AUXC.tmp (Dim=773) >>> 


------------------------------------------------------------------------------
                              ORCA MP2 CALCULATION
------------------------------------------------------------------------------

Freezing NCore=16 chemical core electrons

   <<< Use J-auxbasis for calculation of Separable RI-J derivative contributions dsgdb9nsd_017544.AUXJ.tmp (Dim=800) >>> 


---------------------
RI-MP2 ENERGY+DENSITY
---------------------
Dimension of the basis                    ...  314
Memory devoted to MP2                     ... 2000 MB   
Data format for buffers                   ... DOUBLE
Compression type for matrix containers    ... UNCOMPRESSED
Overall scaling of the MP2 energy         ...   1.000e+00 Eh
Calculating two index integrals           ... done (    0.016 sec)
Cholesky decomposition of V**-1           ... done (    0.093 sec)

-----------------
RI-TRANSFORMATION (AUX index driven)
-----------------

Dimension of the orbital-basis         ... 314
Dimension of the aux-basis             ... 773
Transformation of internal MOs         ...    0-  29
Transformation of internal/external MOs...    0-  29 to   30- 313
Number Format for Storage              ... Double (8 Byte)
Integral mode                          ... Direct

First Phase: integral generation and transformation of MO indices
  Aux angular momentum 0               ... done (    0.718 sec)
  Aux angular momentum 1               ... done (    0.890 sec)
  Aux angular momentum 2               ... done (    0.923 sec)
  Aux angular momentum 3               ... done (    0.655 sec)
  Aux angular momentum 4               ... done (    0.303 sec)
Closing buffer VIJ ( 0.00 GB; CompressionRatio= 1.93)
Closing buffer VIA ( 0.05 GB; CompressionRatio= 1.00)
  Phase 1 completed in     3.588 sec
Second Phase: sorting and transformation of aux index

IJ-Transformation
Memory available                       ... 1988 MB 
Max. # MO pairs treated in a batch     ... 30    
# of internal orbitals                 ... 30
# batches for internal orbitals        ... 1
Closing buffer IJV ( 0.00 GB; CompressionRatio= 1.00)
(ij|v) transformation done in     0.128 sec

IA-Transformation
Memory available                       ... 1988 MB 
Max. # MO pairs treated in a batch     ... 30    
# of internal orbitals                 ... 30
# batches for internal orbitals        ... 1
Closing buffer IAV ( 0.05 GB; CompressionRatio= 1.00)
(ia|v) transformation done in     1.042 sec

  Phase 2 completed in     1.333 sec
RI-Integral transformation completed in     4.921 sec
Opening buffers                              ... done
Frozen core precalculation                   ... done

Starting loop over batches of integrals:

Operator 0  - window                       ... (  8- 29)x( 30-313)
Operator 0  - Memory available             ...  2000 MB
Operator 0  - Memory needed per MO         ...   3.3 MB
Operator 0  - Number of orbitals per batch ... 22
Operator 0  - Number of batches            ... 1

OPERATOR  0   PASS   0:  MOs     8 ...   29
  Reading integrals       ... ok
  Internal MO  10
  Internal MO  13
  Internal MO  16
  Internal MO  19
  Internal MO  22
  Internal MO  25
  Internal MO  28
Time spent in pair loops =    25.149 sec
Deleting buffer (Ka|jb)[aa] ...done

-----------------------------------------------
 RI-MP2 CORRELATION ENERGY:     -1.344616569 Eh
-----------------------------------------------


---------------------
MP2 DENSITY FORMATION
---------------------

Completing the external part of the density      ... done
Storing the unrelaxed density                    ... done

Calculating G(D)                                 ... done
Completing the Lagrangian                        ... done
Solving the Z-vector equations                   ... 

------------------------------------------------------------------------------
                           ORCA CP-SCF CALCULATION
------------------------------------------------------------------------------

Input orbitals are from        ... dsgdb9nsd_017544.gbw
Input Perturbation             ... dsgdb9nsd_017544.pin.tmp
Wavefunction output            ... dsgdb9nsd_017544.pout.tmp
Perturbation mode              ... Real perturbation
Solver                         ... POPLE
Max. number of iterations      ... 128
Convergence tolerance          ... 1.000e-08
Integral handling              ... Direct
Number of perturbations        ... 1
Number of operators            ... 1
Orbital ranges used for CP-SCF:
 Operator 0:  Orbitals   0... 29  to  30...313
Variables per vector in CP-SCF ... 8520
Number of vectors sought       ... 1
     CP-SCF ITERATION   0: 
     CP-SCF ITERATION   1:      0.000661875
     CP-SCF ITERATION   2:      0.000076608
     CP-SCF ITERATION   3:      0.000006494
     CP-SCF ITERATION   4:      0.000000486
     CP-SCF ITERATION   5:      0.000000049
     CP-SCF ITERATION   6:      0.000000006
done
Finalizing the relaxed density                   ... done
Transforming P to the AO basis                   ... done
Storing the relaxed density                      ... done

                *********************************************
                * UNRELAXED MP2 DENSITY POPULATION ANALYSIS *
                *********************************************

------------------------------------------------------------------------------
                           ORCA POPULATION ANALYSIS
------------------------------------------------------------------------------
Input electron density              ... dsgdb9nsd_017544.pmp2ur
BaseName (.gbw .S,...)              ... dsgdb9nsd_017544

                    ********************************
                    * MULLIKEN POPULATION ANALYSIS *
                    ********************************

-----------------------
MULLIKEN ATOMIC CHARGES
-----------------------
   0 C :   -0.156351
   1 C :   -0.013953
   2 C :   -0.190211
   3 C :    0.130053
   4 C :   -0.266191
   5 C :   -0.288343
   6 C :   -0.088971
   7 N :   -0.296970
   8 H :    0.117669
   9 H :    0.113287
  10 H :    0.110925
  11 H :    0.096869
  12 H :    0.097064
  13 H :    0.114231
  14 H :    0.113770
  15 H :    0.107119
  16 H :    0.110659
  17 H :    0.096038
  18 H :    0.093305
Sum of atomic charges:    0.0000000

--------------------------------
MULLIKEN REDUCED ORBITAL CHARGES
--------------------------------
  0 C s       :     3.201763  s :     3.201763
      pz      :     0.948528  p :     2.815391
      px      :     0.992976
      py      :     0.873888
      dz2     :     0.031865  d :     0.125058
      dxz     :     0.017176
      dyz     :     0.020086
      dx2y2   :     0.026312
      dxy     :     0.029619
      f0      :     0.002437  f :     0.014139
      f+1     :     0.001122
      f-1     :     0.001892
      f+2     :     0.002051
      f-2     :     0.002411
      f+3     :     0.002334
      f-3     :     0.001893
  1 C s       :     3.140640  s :     3.140640
      pz      :     0.952262  p :     2.699665
      px      :     0.785979
      py      :     0.961423
      dz2     :     0.022225  d :     0.157242
      dxz     :     0.042329
      dyz     :     0.026997
      dx2y2   :     0.027202
      dxy     :     0.038488
      f0      :     0.001732  f :     0.016406
      f+1     :     0.002516
      f-1     :     0.001856
      f+2     :     0.002161
      f-2     :     0.002668
      f+3     :     0.002881
      f-3     :     0.002592
  2 C s       :     3.139776  s :     3.139776
      pz      :     0.979770  p :     2.908419
      px      :     0.963350
      py      :     0.965299
      dz2     :     0.018824  d :     0.131282
      dxz     :     0.033865
      dyz     :     0.026983
      dx2y2   :     0.019731
      dxy     :     0.031878
      f0      :     0.001081  f :     0.010734
      f+1     :     0.001373
      f-1     :     0.001156
      f+2     :     0.001499
      f-2     :     0.002970
      f+3     :     0.001309
      f-3     :     0.001346
  3 C s       :     3.035604  s :     3.035604
      pz      :     0.812610  p :     2.650853
      px      :     0.886185
      py      :     0.952059
      dz2     :     0.035534  d :     0.166396
      dxz     :     0.037804
      dyz     :     0.034327
      dx2y2   :     0.028880
      dxy     :     0.029851
      f0      :     0.002597  f :     0.017094
      f+1     :     0.002875
      f-1     :     0.003149
      f+2     :     0.002555
      f-2     :     0.002474
      f+3     :     0.001676
      f-3     :     0.001768
  4 C s       :     3.226233  s :     3.226233
      pz      :     1.041204  p :     2.924054
      px      :     1.007252
      py      :     0.875599
      dz2     :     0.026515  d :     0.103918
      dxz     :     0.013900
      dyz     :     0.021077
      dx2y2   :     0.021508
      dxy     :     0.020917
      f0      :     0.001099  f :     0.011985
      f+1     :     0.001399
      f-1     :     0.002437
      f+2     :     0.001411
      f-2     :     0.001413
      f+3     :     0.002661
      f-3     :     0.001567
  5 C s       :     3.226739  s :     3.226739
      pz      :     0.910116  p :     2.940719
      px      :     1.032191
      py      :     0.998412
      dz2     :     0.022461  d :     0.108897
      dxz     :     0.024281
      dyz     :     0.025609
      dx2y2   :     0.018143
      dxy     :     0.018404
      f0      :     0.002155  f :     0.011988
      f+1     :     0.001621
      f-1     :     0.002402
      f+2     :     0.001593
      f-2     :     0.001651
      f+3     :     0.001339
      f-3     :     0.001228
  6 C s       :     3.194524  s :     3.194524
      pz      :     0.910795  p :     2.735660
      px      :     0.942362
      py      :     0.882503
      dz2     :     0.022280  d :     0.146228
      dxz     :     0.035231
      dyz     :     0.035319
      dx2y2   :     0.030921
      dxy     :     0.022477
      f0      :     0.001262  f :     0.012559
      f+1     :     0.001299
      f-1     :     0.001851
      f+2     :     0.003257
      f-2     :     0.001842
      f+3     :     0.001510
      f-3     :     0.001539
  7 N s       :     3.565477  s :     3.565477
      pz      :     1.387739  p :     3.609310
      px      :     1.231624
      py      :     0.989946
      dz2     :     0.018168  d :     0.114000
      dxz     :     0.014091
      dyz     :     0.032359
      dx2y2   :     0.027732
      dxy     :     0.021649
      f0      :     0.001029  f :     0.008184
      f+1     :     0.000833
      f-1     :     0.001174
      f+2     :     0.001330
      f-2     :     0.001185
      f+3     :     0.001283
      f-3     :     0.001349
  8 H s       :     0.856429  s :     0.856429
      pz      :     0.016514  p :     0.025902
      px      :     0.005181
      py      :     0.004207
  9 H s       :     0.860856  s :     0.860856
      pz      :     0.006034  p :     0.025857
      px      :     0.007842
      py      :     0.011980
 10 H s       :     0.862705  s :     0.862705
      pz      :     0.013893  p :     0.026370
      px      :     0.005616
      py      :     0.006861
 11 H s       :     0.877933  s :     0.877933
      pz      :     0.008602  p :     0.025198
      px      :     0.008639
      py      :     0.007957
 12 H s       :     0.877669  s :     0.877669
      pz      :     0.008002  p :     0.025266
      px      :     0.009235
      py      :     0.008029
 13 H s       :     0.859562  s :     0.859562
      pz      :     0.005817  p :     0.026207
      px      :     0.007454
      py      :     0.012937
 14 H s       :     0.860018  s :     0.860018
      pz      :     0.005816  p :     0.026211
      px      :     0.015764
      py      :     0.004631
 15 H s       :     0.866694  s :     0.866694
      pz      :     0.007495  p :     0.026187
      px      :     0.009099
      py      :     0.009593
 16 H s       :     0.863190  s :     0.863190
      pz      :     0.007474  p :     0.026151
      px      :     0.013572
      py      :     0.005106
 17 H s       :     0.878923  s :     0.878923
      pz      :     0.008532  p :     0.025040
      px      :     0.004586
      py      :     0.011922
 18 H s       :     0.881844  s :     0.881844
      pz      :     0.007748  p :     0.024851
      px      :     0.012787
      py      :     0.004316


                     *******************************
                     * LOEWDIN POPULATION ANALYSIS *
                     *******************************

----------------------
LOEWDIN ATOMIC CHARGES
----------------------
   0 C :   -0.223677
   1 C :   -0.222925
   2 C :   -0.180901
   3 C :   -0.237736
   4 C :   -0.194032
   5 C :   -0.199579
   6 C :   -0.211518
   7 N :    0.082982
   8 H :    0.123130
   9 H :    0.117504
  10 H :    0.129030
  11 H :    0.134756
  12 H :    0.133282
  13 H :    0.126224
  14 H :    0.125659
  15 H :    0.122733
  16 H :    0.122881
  17 H :    0.127142
  18 H :    0.125045

-------------------------------
LOEWDIN REDUCED ORBITAL CHARGES
-------------------------------
  0 C s       :     2.781046  s :     2.781046
      pz      :     0.996232  p :     2.922472
      px      :     1.011877
      py      :     0.914363
      dz2     :     0.117649  d :     0.457195
      dxz     :     0.060807
      dyz     :     0.093328
      dx2y2   :     0.083216
      dxy     :     0.102195
      f0      :     0.006639  f :     0.062964
      f+1     :     0.004380
      f-1     :     0.009157
      f+2     :     0.011020
      f-2     :     0.013069
      f+3     :     0.011156
      f-3     :     0.007543
  1 C s       :     2.733416  s :     2.733416
      pz      :     0.984974  p :     2.833362
      px      :     0.894737
      py      :     0.953652
      dz2     :     0.092056  d :     0.578394
      dxz     :     0.146434
      dyz     :     0.092340
      dx2y2   :     0.111241
      dxy     :     0.136323
      f0      :     0.007554  f :     0.077753
      f+1     :     0.012077
      f-1     :     0.007369
      f+2     :     0.009690
      f-2     :     0.010946
      f+3     :     0.017650
      f-3     :     0.012468
  2 C s       :     2.758949  s :     2.758949
      pz      :     0.987723  p :     2.952124
      px      :     0.979988
      py      :     0.984414
      dz2     :     0.052792  d :     0.423401
      dxz     :     0.117921
      dyz     :     0.089780
      dx2y2   :     0.054055
      dxy     :     0.108852
      f0      :     0.006048  f :     0.046427
      f+1     :     0.006772
      f-1     :     0.005452
      f+2     :     0.006357
      f-2     :     0.007863
      f+3     :     0.006561
      f-3     :     0.007374
  3 C s       :     2.670045  s :     2.670045
      pz      :     0.931796  p :     2.852787
      px      :     0.966006
      py      :     0.954985
      dz2     :     0.140188  d :     0.637033
      dxz     :     0.154196
      dyz     :     0.136991
      dx2y2   :     0.105287
      dxy     :     0.100371
      f0      :     0.010537  f :     0.077870
      f+1     :     0.015056
      f-1     :     0.017505
      f+2     :     0.010152
      f-2     :     0.009280
      f+3     :     0.007223
      f-3     :     0.008118
  4 C s       :     2.763078  s :     2.763078
      pz      :     1.027731  p :     2.991496
      px      :     1.000544
      py      :     0.963221
      dz2     :     0.086105  d :     0.391425
      dxz     :     0.038170
      dyz     :     0.067663
      dx2y2   :     0.102109
      dxy     :     0.097378
      f0      :     0.002739  f :     0.048033
      f+1     :     0.005394
      f-1     :     0.011647
      f+2     :     0.006566
      f-2     :     0.006712
      f+3     :     0.009580
      f-3     :     0.005394
  5 C s       :     2.767672  s :     2.767672
      pz      :     0.962425  p :     2.993705
      px      :     1.013489
      py      :     1.017790
      dz2     :     0.071996  d :     0.390859
      dxz     :     0.098701
      dyz     :     0.097674
      dx2y2   :     0.061414
      dxy     :     0.061075
      f0      :     0.007963  f :     0.047343
      f+1     :     0.007041
      f-1     :     0.013669
      f+2     :     0.004567
      f-2     :     0.004770
      f+3     :     0.004014
      f-3     :     0.005319
  6 C s       :     2.774949  s :     2.774949
      pz      :     0.967944  p :     2.877680
      px      :     0.986907
      py      :     0.922829
      dz2     :     0.064658  d :     0.498549
      dxz     :     0.112338
      dyz     :     0.137179
      dx2y2   :     0.115669
      dxy     :     0.068705
      f0      :     0.007657  f :     0.060340
      f+1     :     0.005746
      f-1     :     0.010975
      f+2     :     0.010008
      f-2     :     0.008836
      f+3     :     0.008743
      f-3     :     0.008375
  7 N s       :     3.027218  s :     3.027218
      pz      :     1.338267  p :     3.586083
      px      :     1.197148
      py      :     1.050668
      dz2     :     0.040001  d :     0.278246
      dxz     :     0.036953
      dyz     :     0.070475
      dx2y2   :     0.068375
      dxy     :     0.062442
      f0      :     0.002325  f :     0.025471
      f+1     :     0.001672
      f-1     :     0.004854
      f+2     :     0.003783
      f-2     :     0.003777
      f+3     :     0.005469
      f-3     :     0.003590
  8 H s       :     0.809367  s :     0.809367
      pz      :     0.041244  p :     0.067503
      px      :     0.014678
      py      :     0.011580
  9 H s       :     0.816945  s :     0.816945
      pz      :     0.017157  p :     0.065551
      px      :     0.019994
      py      :     0.028401
 10 H s       :     0.806873  s :     0.806873
      pz      :     0.033431  p :     0.064097
      px      :     0.012935
      py      :     0.017732
 11 H s       :     0.802517  s :     0.802517
      pz      :     0.022132  p :     0.062728
      px      :     0.020018
      py      :     0.020578
 12 H s       :     0.803439  s :     0.803439
      pz      :     0.020948  p :     0.063279
      px      :     0.021402
      py      :     0.020929
 13 H s       :     0.807140  s :     0.807140
      pz      :     0.016151  p :     0.066636
      px      :     0.020931
      py      :     0.029554
 14 H s       :     0.807695  s :     0.807695
      pz      :     0.016146  p :     0.066647
      px      :     0.038414
      py      :     0.012086
 15 H s       :     0.810535  s :     0.810535
      pz      :     0.018053  p :     0.066732
      px      :     0.024639
      py      :     0.024040
 16 H s       :     0.810403  s :     0.810403
      pz      :     0.017999  p :     0.066716
      px      :     0.034194
      py      :     0.014523
 17 H s       :     0.810801  s :     0.810801
      pz      :     0.021499  p :     0.062056
      px      :     0.012966
      py      :     0.027591
 18 H s       :     0.812387  s :     0.812387
      pz      :     0.020524  p :     0.062568
      px      :     0.030311
      py      :     0.011733


                      *****************************
                      * MAYER POPULATION ANALYSIS *
                      *****************************

  NA   - Mulliken gross atomic population
  ZA   - Total nuclear charge
  QA   - Mulliken gross atomic charge
  VA   - Mayer's total valence
  BVA  - Mayer's bonded valence
  FA   - Mayer's free valence

  ATOM       NA         ZA         QA         VA         BVA        FA
  0 C      6.1564     6.0000    -0.1564     4.0586     3.7232     0.3355
  1 C      6.0140     6.0000    -0.0140     4.0065     3.6593     0.3472
  2 C      6.1902     6.0000    -0.1902     4.0677     3.7422     0.3254
  3 C      5.8699     6.0000     0.1301     3.7372     3.3742     0.3631
  4 C      6.2662     6.0000    -0.2662     4.0254     3.6924     0.3330
  5 C      6.2883     6.0000    -0.2883     4.0592     3.7197     0.3395
  6 C      6.0890     6.0000    -0.0890     4.0913     3.7695     0.3218
  7 N      7.2970     7.0000    -0.2970     3.0354     2.5926     0.4428
  8 H      0.8823     1.0000     0.1177     0.9662     0.9150     0.0512
  9 H      0.8867     1.0000     0.1133     0.9817     0.9330     0.0487
 10 H      0.8891     1.0000     0.1109     0.9761     0.9269     0.0492
 11 H      0.9031     1.0000     0.0969     0.9831     0.9312     0.0518
 12 H      0.9029     1.0000     0.0971     0.9800     0.9279     0.0521
 13 H      0.8858     1.0000     0.1142     0.9846     0.9346     0.0500
 14 H      0.8862     1.0000     0.1138     0.9834     0.9333     0.0501
 15 H      0.8929     1.0000     0.1071     0.9865     0.9361     0.0505
 16 H      0.8893     1.0000     0.1107     0.9838     0.9336     0.0503
 17 H      0.9040     1.0000     0.0960     0.9771     0.9256     0.0516
 18 H      0.9067     1.0000     0.0933     0.9793     0.9271     0.0522

  Mayer bond orders larger than 0.1
B(  0-C ,  1-C ) :   0.9396 B(  0-C ,  7-N ) :   0.8524 B(  0-C ,  8-H ) :   0.9315 
B(  0-C ,  9-H ) :   0.9420 B(  1-C ,  2-C ) :   0.9299 B(  1-C ,  7-N ) :   0.8749 
B(  1-C , 10-H ) :   0.9340 B(  2-C ,  3-C ) :   0.9060 B(  2-C , 11-H ) :   0.9448 
B(  2-C , 12-H ) :   0.9261 B(  3-C ,  4-C ) :   0.8445 B(  3-C ,  5-C ) :   0.8581 
B(  3-C ,  6-C ) :   0.8931 B(  4-C ,  5-C ) :   0.9525 B(  4-C , 13-H ) :   0.9389 
B(  4-C , 14-H ) :   0.9381 B(  5-C , 15-H ) :   0.9350 B(  5-C , 16-H ) :   0.9363 
B(  6-C ,  7-N ) :   0.9024 B(  6-C , 17-H ) :   0.9500 B(  6-C , 18-H ) :   0.9473 



                *******************************************
                * RELAXED MP2 DENSITY POPULATION ANALYSIS *
                *******************************************

------------------------------------------------------------------------------
                           ORCA POPULATION ANALYSIS
------------------------------------------------------------------------------
Input electron density              ... dsgdb9nsd_017544.pmp2re
BaseName (.gbw .S,...)              ... dsgdb9nsd_017544

                    ********************************
                    * MULLIKEN POPULATION ANALYSIS *
                    ********************************

-----------------------
MULLIKEN ATOMIC CHARGES
-----------------------
   0 C :   -0.190219
   1 C :   -0.057796
   2 C :   -0.218272
   3 C :    0.058776
   4 C :   -0.284647
   5 C :   -0.301538
   6 C :   -0.137800
   7 N :   -0.222284
   8 H :    0.130127
   9 H :    0.125977
  10 H :    0.120176
  11 H :    0.117765
  12 H :    0.116399
  13 H :    0.130488
  14 H :    0.130055
  15 H :    0.124833
  16 H :    0.128305
  17 H :    0.116351
  18 H :    0.113304
Sum of atomic charges:    0.0000000

--------------------------------
MULLIKEN REDUCED ORBITAL CHARGES
--------------------------------
  0 C s       :     3.220623  s :     3.220623
      pz      :     0.962801  p :     2.842371
      px      :     1.001488
      py      :     0.878082
      dz2     :     0.027475  d :     0.113756
      dxz     :     0.016623
      dyz     :     0.019641
      dx2y2   :     0.022281
      dxy     :     0.027735
      f0      :     0.002219  f :     0.013469
      f+1     :     0.001141
      f-1     :     0.001894
      f+2     :     0.001942
      f-2     :     0.002278
      f+3     :     0.002200
      f-3     :     0.001796
  1 C s       :     3.179125  s :     3.179125
      pz      :     0.956442  p :     2.715605
      px      :     0.781954
      py      :     0.977210
      dz2     :     0.021659  d :     0.147402
      dxz     :     0.039675
      dyz     :     0.024236
      dx2y2   :     0.028747
      dxy     :     0.033085
      f0      :     0.001631  f :     0.015665
      f+1     :     0.002449
      f-1     :     0.001787
      f+2     :     0.002163
      f-2     :     0.002375
      f+3     :     0.002820
      f-3     :     0.002440
  2 C s       :     3.144174  s :     3.144174
      pz      :     0.989542  p :     2.944838
      px      :     0.977393
      py      :     0.977903
      dz2     :     0.019851  d :     0.119054
      dxz     :     0.028748
      dyz     :     0.022642
      dx2y2   :     0.020703
      dxy     :     0.027109
      f0      :     0.000996  f :     0.010206
      f+1     :     0.001360
      f-1     :     0.001131
      f+2     :     0.001517
      f-2     :     0.002609
      f+3     :     0.001300
      f-3     :     0.001292
  3 C s       :     3.108886  s :     3.108886
      pz      :     0.815300  p :     2.660729
      px      :     0.897290
      py      :     0.948139
      dz2     :     0.033469  d :     0.155261
      dxz     :     0.034329
      dyz     :     0.032605
      dx2y2   :     0.027205
      dxy     :     0.027652
      f0      :     0.002348  f :     0.016348
      f+1     :     0.002931
      f-1     :     0.003058
      f+2     :     0.002391
      f-2     :     0.002310
      f+3     :     0.001559
      f-3     :     0.001750
  4 C s       :     3.234263  s :     3.234263
      pz      :     1.050396  p :     2.946588
      px      :     1.016961
      py      :     0.879231
      dz2     :     0.024111  d :     0.092339
      dxz     :     0.013587
      dyz     :     0.016810
      dx2y2   :     0.019132
      dxy     :     0.018700
      f0      :     0.001076  f :     0.011456
      f+1     :     0.001331
      f-1     :     0.002312
      f+2     :     0.001351
      f-2     :     0.001338
      f+3     :     0.002451
      f-3     :     0.001597
  5 C s       :     3.232109  s :     3.232109
      pz      :     0.907439  p :     2.961060
      px      :     1.049683
      py      :     1.003938
      dz2     :     0.018029  d :     0.096923
      dxz     :     0.022326
      dyz     :     0.024682
      dx2y2   :     0.015996
      dxy     :     0.015889
      f0      :     0.001934  f :     0.011447
      f+1     :     0.001623
      f-1     :     0.002338
      f+2     :     0.001543
      f-2     :     0.001591
      f+3     :     0.001218
      f-3     :     0.001201
  6 C s       :     3.195718  s :     3.195718
      pz      :     0.931467  p :     2.794477
      px      :     0.960611
      py      :     0.902399
      dz2     :     0.023909  d :     0.135752
      dxz     :     0.029848
      dyz     :     0.031961
      dx2y2   :     0.026358
      dxy     :     0.023676
      f0      :     0.001146  f :     0.011853
      f+1     :     0.001276
      f-1     :     0.001788
      f+2     :     0.002919
      f-2     :     0.001808
      f+3     :     0.001442
      f-3     :     0.001474
  7 N s       :     3.560573  s :     3.560573
      pz      :     1.363744  p :     3.544308
      px      :     1.206485
      py      :     0.974079
      dz2     :     0.018288  d :     0.109384
      dxz     :     0.015119
      dyz     :     0.028355
      dx2y2   :     0.025357
      dxy     :     0.022264
      f0      :     0.001016  f :     0.008019
      f+1     :     0.000801
      f-1     :     0.001183
      f+2     :     0.001229
      f-2     :     0.001203
      f+3     :     0.001291
      f-3     :     0.001296
  8 H s       :     0.844876  s :     0.844876
      pz      :     0.014994  p :     0.024997
      px      :     0.005479
      py      :     0.004524
  9 H s       :     0.849235  s :     0.849235
      pz      :     0.005909  p :     0.024788
      px      :     0.007738
      py      :     0.011141
 10 H s       :     0.854552  s :     0.854552
      pz      :     0.012732  p :     0.025272
      px      :     0.005646
      py      :     0.006895
 11 H s       :     0.858061  s :     0.858061
      pz      :     0.008217  p :     0.024174
      px      :     0.008313
      py      :     0.007645
 12 H s       :     0.859249  s :     0.859249
      pz      :     0.007692  p :     0.024352
      px      :     0.008830
      py      :     0.007829
 13 H s       :     0.844258  s :     0.844258
      pz      :     0.006124  p :     0.025254
      px      :     0.007170
      py      :     0.011960
 14 H s       :     0.844676  s :     0.844676
      pz      :     0.006126  p :     0.025269
      px      :     0.014346
      py      :     0.004797
 15 H s       :     0.849963  s :     0.849963
      pz      :     0.007376  p :     0.025204
      px      :     0.008634
      py      :     0.009194
 16 H s       :     0.846538  s :     0.846538
      pz      :     0.007347  p :     0.025157
      px      :     0.012445
      py      :     0.005365
 17 H s       :     0.859718  s :     0.859718
      pz      :     0.008074  p :     0.023931
      px      :     0.004831
      py      :     0.011025
 18 H s       :     0.862846  s :     0.862846
      pz      :     0.007476  p :     0.023850
      px      :     0.011822
      py      :     0.004551


                     *******************************
                     * LOEWDIN POPULATION ANALYSIS *
                     *******************************

----------------------
LOEWDIN ATOMIC CHARGES
----------------------
   0 C :   -0.244983
   1 C :   -0.240947
   2 C :   -0.200078
   3 C :   -0.247687
   4 C :   -0.209507
   5 C :   -0.214801
   6 C :   -0.234466
   7 N :    0.106022
   8 H :    0.130389
   9 H :    0.125418
  10 H :    0.137384
  11 H :    0.144887
  12 H :    0.143524
  13 H :    0.135195
  14 H :    0.134730
  15 H :    0.131505
  16 H :    0.131442
  17 H :    0.137035
  18 H :    0.134939

-------------------------------
LOEWDIN REDUCED ORBITAL CHARGES
-------------------------------
  0 C s       :     2.789233  s :     2.789233
      pz      :     1.005096  p :     2.945771
      px      :     1.019880
      py      :     0.920795
      dz2     :     0.114369  d :     0.448206
      dxz     :     0.060453
      dyz     :     0.092818
      dx2y2   :     0.080087
      dxy     :     0.100479
      f0      :     0.006353  f :     0.061773
      f+1     :     0.004401
      f-1     :     0.008962
      f+2     :     0.011086
      f-2     :     0.012728
      f+3     :     0.010743
      f-3     :     0.007501
  1 C s       :     2.741221  s :     2.741221
      pz      :     0.991609  p :     2.849758
      px      :     0.896426
      py      :     0.961723
      dz2     :     0.092651  d :     0.573192
      dxz     :     0.146124
      dyz     :     0.089302
      dx2y2   :     0.112245
      dxy     :     0.132870
      f0      :     0.007302  f :     0.076776
      f+1     :     0.012189
      f-1     :     0.007326
      f+2     :     0.009572
      f-2     :     0.010523
      f+3     :     0.017192
      f-3     :     0.012673
  2 C s       :     2.765655  s :     2.765655
      pz      :     0.995870  p :     2.974728
      px      :     0.986797
      py      :     0.992061
      dz2     :     0.054932  d :     0.413592
      dxz     :     0.113924
      dyz     :     0.084908
      dx2y2   :     0.056042
      dxy     :     0.103786
      f0      :     0.005992  f :     0.046103
      f+1     :     0.006767
      f-1     :     0.005427
      f+2     :     0.006431
      f-2     :     0.007451
      f+3     :     0.006592
      f-3     :     0.007445
  3 C s       :     2.676480  s :     2.676480
      pz      :     0.932452  p :     2.858463
      px      :     0.966980
      py      :     0.959031
      dz2     :     0.140192  d :     0.635148
      dxz     :     0.153914
      dyz     :     0.135753
      dx2y2   :     0.105423
      dxy     :     0.099865
      f0      :     0.010423  f :     0.077596
      f+1     :     0.015365
      f-1     :     0.017068
      f+2     :     0.010130
      f-2     :     0.009196
      f+3     :     0.007133
      f-3     :     0.008282
  4 C s       :     2.769196  s :     2.769196
      pz      :     1.032647  p :     3.010669
      px      :     1.010769
      py      :     0.967253
      dz2     :     0.082945  d :     0.382203
      dxz     :     0.038810
      dyz     :     0.064769
      dx2y2   :     0.100161
      dxy     :     0.095518
      f0      :     0.002790  f :     0.047440
      f+1     :     0.005256
      f-1     :     0.011258
      f+2     :     0.006653
      f-2     :     0.006812
      f+3     :     0.009154
      f-3     :     0.005517
  5 C s       :     2.774240  s :     2.774240
      pz      :     0.963963  p :     3.012192
      px      :     1.024255
      py      :     1.023974
      dz2     :     0.069081  d :     0.381672
      dxz     :     0.097776
      dyz     :     0.096369
      dx2y2   :     0.059589
      dxy     :     0.058857
      f0      :     0.008022  f :     0.046697
      f+1     :     0.007012
      f-1     :     0.013192
      f+2     :     0.004498
      f-2     :     0.004679
      f+3     :     0.003927
      f-3     :     0.005366
  6 C s       :     2.783117  s :     2.783117
      pz      :     0.977448  p :     2.903995
      px      :     0.994646
      py      :     0.931901
      dz2     :     0.066322  d :     0.488127
      dxz     :     0.107384
      dyz     :     0.133867
      dx2y2   :     0.111149
      dxy     :     0.069405
      f0      :     0.007541  f :     0.059226
      f+1     :     0.005704
      f-1     :     0.010723
      f+2     :     0.009619
      f-2     :     0.008635
      f+3     :     0.008682
      f-3     :     0.008322
  7 N s       :     3.034316  s :     3.034316
      pz      :     1.319833  p :     3.554975
      px      :     1.185080
      py      :     1.050063
      dz2     :     0.040954  d :     0.278969
      dxz     :     0.037326
      dyz     :     0.068925
      dx2y2   :     0.067838
      dxy     :     0.063927
      f0      :     0.002379  f :     0.025718
      f+1     :     0.001691
      f-1     :     0.004945
      f+2     :     0.003814
      f-2     :     0.003808
      f+3     :     0.005420
      f-3     :     0.003662
  8 H s       :     0.800920  s :     0.800920
      pz      :     0.041050  p :     0.068691
      px      :     0.015315
      py      :     0.012326
  9 H s       :     0.808117  s :     0.808117
      pz      :     0.017437  p :     0.066465
      px      :     0.020498
      py      :     0.028531
 10 H s       :     0.797472  s :     0.797472
      pz      :     0.033338  p :     0.065144
      px      :     0.013507
      py      :     0.018298
 11 H s       :     0.791078  s :     0.791078
      pz      :     0.022587  p :     0.064036
      px      :     0.020464
      py      :     0.020984
 12 H s       :     0.791772  s :     0.791772
      pz      :     0.021353  p :     0.064704
      px      :     0.021892
      py      :     0.021459
 13 H s       :     0.797239  s :     0.797239
      pz      :     0.016764  p :     0.067566
      px      :     0.021194
      py      :     0.029608
 14 H s       :     0.797671  s :     0.797671
      pz      :     0.016762  p :     0.067599
      px      :     0.038239
      py      :     0.012597
 15 H s       :     0.800819  s :     0.800819
      pz      :     0.018529  p :     0.067676
      px      :     0.024851
      py      :     0.024296
 16 H s       :     0.800917  s :     0.800917
      pz      :     0.018469  p :     0.067641
      px      :     0.034097
      py      :     0.015075
 17 H s       :     0.799735  s :     0.799735
      pz      :     0.021829  p :     0.063229
      px      :     0.013567
      py      :     0.027833
 18 H s       :     0.801192  s :     0.801192
      pz      :     0.020979  p :     0.063869
      px      :     0.030537
      py      :     0.012352


                      *****************************
                      * MAYER POPULATION ANALYSIS *
                      *****************************

  NA   - Mulliken gross atomic population
  ZA   - Total nuclear charge
  QA   - Mulliken gross atomic charge
  VA   - Mayer's total valence
  BVA  - Mayer's bonded valence
  FA   - Mayer's free valence

  ATOM       NA         ZA         QA         VA         BVA        FA
  0 C      6.1902     6.0000    -0.1902     4.0541     3.7226     0.3315
  1 C      6.0578     6.0000    -0.0578     4.0632     3.7219     0.3413
  2 C      6.2183     6.0000    -0.2183     4.0522     3.7316     0.3206
  3 C      5.9412     6.0000     0.0588     3.8313     3.4752     0.3561
  4 C      6.2846     6.0000    -0.2846     4.0012     3.6722     0.3290
  5 C      6.3015     6.0000    -0.3015     4.0262     3.6906     0.3356
  6 C      6.1378     6.0000    -0.1378     4.1034     3.7858     0.3176
  7 N      7.2223     7.0000    -0.2223     3.1454     2.7130     0.4324
  8 H      0.8699     1.0000     0.1301     0.9659     0.9159     0.0501
  9 H      0.8740     1.0000     0.1260     0.9721     0.9241     0.0480
 10 H      0.8798     1.0000     0.1202     0.9716     0.9231     0.0484
 11 H      0.8822     1.0000     0.1178     0.9728     0.9220     0.0508
 12 H      0.8836     1.0000     0.1164     0.9719     0.9209     0.0510
 13 H      0.8695     1.0000     0.1305     0.9791     0.9299     0.0492
 14 H      0.8699     1.0000     0.1301     0.9785     0.9293     0.0492
 15 H      0.8752     1.0000     0.1248     0.9820     0.9325     0.0495
 16 H      0.8717     1.0000     0.1283     0.9787     0.9293     0.0493
 17 H      0.8836     1.0000     0.1164     0.9672     0.9167     0.0505
 18 H      0.8867     1.0000     0.1133     0.9717     0.9207     0.0510

  Mayer bond orders larger than 0.1
B(  0-C ,  1-C ) :   0.9323 B(  0-C ,  7-N ) :   0.8802 B(  0-C ,  8-H ) :   0.9152 
B(  0-C ,  9-H ) :   0.9274 B(  1-C ,  2-C ) :   0.9552 B(  1-C ,  7-N ) :   0.8972 
B(  1-C , 10-H ) :   0.9258 B(  2-C ,  3-C ) :   0.9239 B(  2-C , 11-H ) :   0.9222 
B(  2-C , 12-H ) :   0.9060 B(  3-C ,  4-C ) :   0.8467 B(  3-C ,  5-C ) :   0.8655 
B(  3-C ,  6-C ) :   0.9139 B(  4-C ,  5-C ) :   0.9374 B(  4-C , 13-H ) :   0.9270 
B(  4-C , 14-H ) :   0.9246 B(  5-C , 15-H ) :   0.9230 B(  5-C , 16-H ) :   0.9240 
B(  6-C ,  7-N ) :   0.9498 B(  6-C , 17-H ) :   0.9298 B(  6-C , 18-H ) :   0.9258 



-------
TIMINGS
-------

Total time                :  728.965 sec
Integral trafo            :    4.929 sec (  0.7%)
FC preparation            :    2.284 sec (  0.3%)
I/O of integrals          :    0.039 sec (  0.0%)
K(i,j) Operators          :    5.738 sec (  0.8%)
T(i,j) pair energies      :    0.539 sec (  0.1%)
V-calculation             :    0.016 sec (  0.0%)
V**(-1/2)                 :    0.093 sec (  0.0%)
Gamma(ia|P)               :    5.559 sec (  0.8%)
Gamma-Trafo               :    1.021 sec (  0.1%)
D(virtual)                :    2.127 sec (  0.3%)
D(internal)               :    1.781 sec (  0.2%)
W(virtual)                :    0.000 sec (  0.0%)
W(internal)               :    0.000 sec (  0.0%)
L(virtual)                :    8.027 sec (  1.1%)
L(internal)               :    0.122 sec (  0.0%)
G(D)                      :   92.085 sec ( 12.6%)
G(Z)                      :    0.000 sec (  0.0%)
Z-Vector Solution         :  604.072 sec ( 82.9%)
3-Index Derivative        :    0.000 sec (  0.0%)
2-Index Derivative        :    0.000 sec (  0.0%)
Separable Gradient (RIJ)  :    0.000 sec (  0.0%)
Separable Gradient (X)    :    0.000 sec (  0.0%)


---------------------------------------
MP2 TOTAL ENERGY:     -327.303826778 Eh
---------------------------------------

-------------------------   --------------------
FINAL SINGLE POINT ENERGY      -327.303826777632
-------------------------   --------------------


                            ***************************************
                            *     ORCA property calculations      *
                            ***************************************

                                    ---------------------
                                    Active property flags
                                    ---------------------
   (+) Dipole Moment


------------------------------------------------------------------------------
                       ORCA ELECTRIC PROPERTIES CALCULATION
------------------------------------------------------------------------------

Dipole Moment Calculation                       ... on
Quadrupole Moment Calculation                   ... off
Polarizability Calculation                      ... off
GBWName                                         ... dsgdb9nsd_017544.gbw
Electron density file                           ... dsgdb9nsd_017544.scfp.tmp

-------------
DIPOLE MOMENT
-------------
                                X             Y             Z
Electronic contribution:     -1.15675       0.96663      -2.65031
Nuclear contribution   :      1.61560      -0.93788       3.14626
                        -----------------------------------------
Total Dipole Moment    :      0.45885       0.02876       0.49596
                        -----------------------------------------
Magnitude (a.u.)       :      0.67627
Magnitude (Debye)      :      1.71895


                         *** MP2 UNRELAXED DENSITY ***

------------------------------------------------------------------------------
                       ORCA ELECTRIC PROPERTIES CALCULATION
------------------------------------------------------------------------------

Dipole Moment Calculation                       ... on
Quadrupole Moment Calculation                   ... off
Polarizability Calculation                      ... off
GBWName                                         ... dsgdb9nsd_017544.gbw
Electron density file                           ... dsgdb9nsd_017544.pmp2ur

-------------
DIPOLE MOMENT
-------------
                                X             Y             Z
Electronic contribution:     -1.16911       0.95894      -2.66190
Nuclear contribution   :      1.61560      -0.93788       3.14626
                        -----------------------------------------
Total Dipole Moment    :      0.44650       0.02106       0.48436
                        -----------------------------------------
Magnitude (a.u.)       :      0.65910
Magnitude (Debye)      :      1.67529


                           *** MP2 RELAXED DENSITY ***

------------------------------------------------------------------------------
                       ORCA ELECTRIC PROPERTIES CALCULATION
------------------------------------------------------------------------------

Dipole Moment Calculation                       ... on
Quadrupole Moment Calculation                   ... off
Polarizability Calculation                      ... off
GBWName                                         ... dsgdb9nsd_017544.gbw
Electron density file                           ... dsgdb9nsd_017544.pmp2re

-------------
DIPOLE MOMENT
-------------
                                X             Y             Z
Electronic contribution:     -1.18883       0.93403      -2.66983
Nuclear contribution   :      1.61560      -0.93788       3.14626
                        -----------------------------------------
Total Dipole Moment    :      0.42678      -0.00385       0.47644
                        -----------------------------------------
Magnitude (a.u.)       :      0.63964
Magnitude (Debye)      :      1.62584


Timings for individual modules:

Sum of individual times         ...      861.428 sec (=  14.357 min)
GTO integral calculation        ...        0.459 sec (=   0.008 min)   0.1 %
SCF iterations                  ...      131.847 sec (=   2.197 min)  15.3 %
MP2 module                      ...      729.122 sec (=  12.152 min)  84.6 %
                             ****ORCA TERMINATED NORMALLY****
TOTAL RUN TIME: 0 days 0 hours 14 minutes 21 seconds 887 msec
