
                                 *****************
                                 * O   R   C   A *
                                 *****************

           --- An Ab Initio, DFT and Semiempirical electronic structure package ---

                  #######################################################
                  #                        -***-                        #
                  #  Department of molecular theory and spectroscopy    #
                  #              Directorship: Frank Neese              #
                  # Max Planck Institute for Chemical Energy Conversion #
                  #                  D-45470 Muelheim/Ruhr              #
                  #                       Germany                       #
                  #                                                     #
                  #                  All rights reserved                #
                  #                        -***-                        #
                  #######################################################


                         Program Version 3.0.3 - RELEASE   -


 With contributions from (in alphabetic order):
   Ute Becker             : Parallelization
   Dmytro Bykov           : SCF Hessian
   Dmitry Ganyushin       : Spin-Orbit,Spin-Spin,Magnetic field MRCI
   Andreas Hansen         : Spin unrestricted coupled pair/coupled cluster methods
   Dimitrios Liakos       : Extrapolation schemes; parallel MDCI
   Robert Izsak           : Overlap fitted RIJCOSX, COSX-SCS-MP3
   Christian Kollmar      : KDIIS, OOCD, Brueckner-CCSD(T), CCSD density
   Simone Kossmann        : Meta GGA functionals, TD-DFT gradient, OOMP2, MP2 Hessian
   Taras Petrenko         : DFT Hessian,TD-DFT gradient, ASA and ECA modules, normal mode analysis, Resonance Raman, ABS, FL, XAS/XES, NRVS
   Christoph Reimann      : Effective Core Potentials
   Michael Roemelt        : Restricted open shell CIS
   Christoph Riplinger    : Improved optimizer, TS searches, QM/MM, DLPNO-CCSD
   Barbara Sandhoefer     : DKH picture change effects
   Igor Schapiro          : Molecular dynamics
   Kantharuban Sivalingam : CASSCF convergence, NEVPT2
   Boris Wezisla          : Elementary symmetry handling
   Frank Wennmohs         : Technical directorship


 We gratefully acknowledge several colleagues who have allowed us to
 interface, adapt or use parts of their codes:
   Stefan Grimme, W. Hujo, H. Kruse, T. Risthaus : VdW corrections, initial TS optimization,
                                                   DFT functionals, gCP
   Ed Valeev                                     : LibInt (2-el integral package), F12 methods
   Garnet Chan, S. Sharma, R. Olivares           : DMRG
   Ulf Ekstrom                                   : XCFun DFT Library
   Mihaly Kallay                                 : mrcc  (arbitrary order and MRCC methods)
   Andreas Klamt, Michael Diedenhofen            : otool_cosmo (COSMO solvation model)
   Frank Weinhold                                : gennbo (NPA and NBO analysis)
   Christopher J. Cramer and Donald G. Truhlar   : smd solvation model


 Your calculation uses the libint2 library for the computation of 2-el integrals
 For citations please refer to: http://libint.valeyev.net

 This ORCA versions uses:
   CBLAS   interface :  Fast vector & matrix operations
   LAPACKE interface :  Fast linear algebra routines
   SCALAPACK package :  Parallel linear algebra routines


Your calculation utilizes the basis: Ahlrichs-TZV
Cite in your paper:
H - Kr: A. Schaefer, H. Horn and R. Ahlrichs, J. Chem. Phys. 97, 2571 (1992).

The def2-TZV basis will be loaded
Cite in your paper:
 	F. Weigend, R. Ahlrichs, Phys. Chem. Chem. Phys. 2005, 7, 3297.

================================================================================
                                        WARNINGS
                       Please study these warnings very carefully!
================================================================================
Now building the actual basis set


INFO   : the flag for use of LIBINT has been found!

================================================================================
                                       INPUT FILE
================================================================================
NAME = dsgdb9nsd_042138.inp
|  1> ! RI-MP2 RIJK def2-TZVP def2-TZVP/C def2-TZVP/JK TIGHTSCF
|  2> % maxcore 2000
|  3> % mp2 density relaxed end
|  4> *xyz 0 1
|  5>  C        0.0208779557     1.5953527881     0.1622595423 
|  6>  C        1.4021876958     2.1874638962    -0.1419073320 
|  7>  O        1.7916258288     2.2162006152    -1.5104618040 
|  8>  C        2.1485372404     1.0127824168    -2.1332321474 
|  9>  O        3.0380359812     0.2259853159    -1.3828504256 
| 10>  C        2.5866678224    -1.0668999484    -0.9594418095 
| 11>  C        2.1176739225    -1.1151560517     0.4775818391 
| 12>  C        0.9501974712    -0.6471055546     0.9244980536 
| 13>  C       -0.0973732146     0.0499196188     0.1010706827 
| 14>  H       -0.2408290666     1.9220135942     1.1776405594 
| 15>  H       -0.7215813908     2.0402192317    -0.5105135839 
| 16>  H        1.3971525339     3.2418104224     0.1512078206 
| 17>  H        2.1697677406     1.6786749115     0.4515557131 
| 18>  H        1.2626465801     0.4150753340    -2.4022902803 
| 19>  H        2.6550623524     1.3281395379    -3.0533870561 
| 20>  H        1.7969121285    -1.4176535328    -1.6379125404 
| 21>  H        3.4409709163    -1.7383111694    -1.0883474173 
| 22>  H        2.8101471274    -1.5556560951     1.1907149666 
| 23>  H        0.7433432125    -0.7178012665     1.9916151877 
| 24>  H       -1.0937617671    -0.2278897288     0.4646490002 
| 25>  H       -0.0489286605    -0.2831244854    -0.9394729986 
| 26> *
| 27> 
| 28>                          ****END OF INPUT****
================================================================================

                       ****************************
                       * Single Point Calculation *
                       ****************************

---------------------------------
CARTESIAN COORDINATES (ANGSTROEM)
---------------------------------
  C      0.020878    1.595353    0.162260
  C      1.402188    2.187464   -0.141907
  O      1.791626    2.216201   -1.510462
  C      2.148537    1.012782   -2.133232
  O      3.038036    0.225985   -1.382850
  C      2.586668   -1.066900   -0.959442
  C      2.117674   -1.115156    0.477582
  C      0.950197   -0.647106    0.924498
  C     -0.097373    0.049920    0.101071
  H     -0.240829    1.922014    1.177641
  H     -0.721581    2.040219   -0.510514
  H      1.397153    3.241810    0.151208
  H      2.169768    1.678675    0.451556
  H      1.262647    0.415075   -2.402290
  H      2.655062    1.328140   -3.053387
  H      1.796912   -1.417654   -1.637913
  H      3.440971   -1.738311   -1.088347
  H      2.810147   -1.555656    1.190715
  H      0.743343   -0.717801    1.991615
  H     -1.093762   -0.227890    0.464649
  H     -0.048929   -0.283124   -0.939473

----------------------------
CARTESIAN COORDINATES (A.U.)
----------------------------
  NO LB      ZA    FRAG    MASS        X           Y           Z
   0 C     6.0000    0    12.011          0.039453618509140          3.014779856496703          0.306626097562411
   1 C     6.0000    0    12.011          2.649750733416082          4.133707691658344         -0.268165993875439
   2 O     8.0000    0    15.999          3.385682150891682          4.188012220555795         -2.854359145308639
   3 C     6.0000    0    12.011          4.060146972886927          1.913881401002886         -4.031224538662731
   4 O     8.0000    0    15.999          5.741055989466733          0.427050357338680         -2.613208588560445
   5 C     6.0000    0    12.011          4.888093783762455         -2.016148714770715         -1.813082261388845
   6 C     6.0000    0    12.011          4.001823754471777         -2.107339534297929          0.902498882433444
   7 C     6.0000    0    12.011          1.795612993712526         -1.222852277933225          1.747048132647250
   8 C     6.0000    0    12.011         -0.184008708373542          0.094334408241747          0.190995910471453
   9 H     1.0000    0     1.008         -0.455100980961882          3.632079318711655          2.225418141463822
  10 H     1.0000    0     1.008         -1.363591211946004          3.855455601072228         -0.964730861217630
  11 H     1.0000    0     1.008          2.640235656385127          6.126133876427572          0.285741370241096
  12 H     1.0000    0     1.008          4.100266803951087          3.172235850619494          0.853316631966517
  13 H     1.0000    0     1.008          2.386056240321263          0.784378706205892         -4.539670723947919
  14 H     1.0000    0     1.008          5.017340714520715          2.509819994263725         -5.770065316889045
  15 H     1.0000    0     1.008          3.395671809586513         -2.678976929777948         -3.095206132671228
  16 H     1.0000    0     1.008          6.502492666595066         -3.284932045702392         -2.056678557257508
  17 H     1.0000    0     1.008          5.310408466811513         -2.939763978304354          2.250125190435190
  18 H     1.0000    0     1.008          1.404715095134228         -1.356447812266823          3.763607268911169
  19 H     1.0000    0     1.008         -2.066910195572759         -0.430649176165587          0.878059358778321
  20 H     1.0000    0     1.008         -0.092461768444610         -0.535027739213386         -1.775346677567784

--------------------------------
INTERNAL COORDINATES (ANGSTROEM)
--------------------------------
 C      0   0   0   0.000000     0.000     0.000
 C      1   0   0   1.533339     0.000     0.000
 O      2   1   0   1.423176   116.427     0.000
 C      3   2   1   1.401229   118.669   286.834
 O      4   3   2   1.404753   113.885   312.885
 C      5   4   3   1.433374   117.619   117.608
 C      6   5   4   1.512389   114.023   260.014
 C      7   6   5   1.334843   125.321    76.235
 C      8   7   6   1.503756   126.050   358.027
 H      1   2   3   1.098270   106.452   196.796
 H      1   2   3   1.096255   109.370   311.576
 H      2   1   3   1.094344   108.347   116.515
 H      2   1   3   1.095556   110.143   234.196
 H      4   3   2   1.102020   111.688    77.717
 H      4   3   2   1.096678   104.098   194.952
 H      6   5   4   1.098665   109.384    24.576
 H      6   5   4   1.094186   105.832   139.548
 H      7   6   5   1.087253   116.017   257.328
 H      8   7   6   1.089278   118.121   181.701
 H      9   8   7   1.096429   109.515   144.500
 H      9   8   7   1.093616   110.425    27.924

---------------------------
INTERNAL COORDINATES (A.U.)
---------------------------
 C      0   0   0   0.000000     0.000     0.000
 C      1   0   0   2.897591     0.000     0.000
 O      2   1   0   2.689412   116.427     0.000
 C      3   2   1   2.647940   118.669   286.834
 O      4   3   2   2.654598   113.885   312.885
 C      5   4   3   2.708684   117.619   117.608
 C      6   5   4   2.858001   114.023   260.014
 C      7   6   5   2.522488   125.321    76.235
 C      8   7   6   2.841686   126.050   358.027
 H      1   2   3   2.075429   106.452   196.796
 H      1   2   3   2.071622   109.370   311.576
 H      2   1   3   2.068010   108.347   116.515
 H      2   1   3   2.070301   110.143   234.196
 H      4   3   2   2.082516   111.688    77.717
 H      4   3   2   2.072421   104.098   194.952
 H      6   5   4   2.076176   109.384    24.576
 H      6   5   4   2.067712   105.832   139.548
 H      7   6   5   2.054610   116.017   257.328
 H      8   7   6   2.058436   118.121   181.701
 H      9   8   7   2.071951   109.515   144.500
 H      9   8   7   2.066635   110.425    27.924

---------------------
BASIS SET INFORMATION
---------------------
There are 3 groups of distinct atoms

 Group   1 Type C   : 11s6p2d1f contracted to 5s3p2d1f pattern {62111/411/11/1}
 Group   2 Type O   : 11s6p2d1f contracted to 5s3p2d1f pattern {62111/411/11/1}
 Group   3 Type H   : 5s1p contracted to 3s1p pattern {311/1}

Atom   0C    basis set group =>   1
Atom   1C    basis set group =>   1
Atom   2O    basis set group =>   2
Atom   3C    basis set group =>   1
Atom   4O    basis set group =>   2
Atom   5C    basis set group =>   1
Atom   6C    basis set group =>   1
Atom   7C    basis set group =>   1
Atom   8C    basis set group =>   1
Atom   9H    basis set group =>   3
Atom  10H    basis set group =>   3
Atom  11H    basis set group =>   3
Atom  12H    basis set group =>   3
Atom  13H    basis set group =>   3
Atom  14H    basis set group =>   3
Atom  15H    basis set group =>   3
Atom  16H    basis set group =>   3
Atom  17H    basis set group =>   3
Atom  18H    basis set group =>   3
Atom  19H    basis set group =>   3
Atom  20H    basis set group =>   3
-------------------------------
AUXILIARY BASIS SET INFORMATION
-------------------------------
There are 3 groups of distinct atoms

 Group   1 Type C   : 14s10p6d2f1g contracted to 10s8p5d1f1g pattern {5111111111/31111111/21111/2/1}
 Group   2 Type O   : 14s10p6d2f1g contracted to 10s8p4d2f1g pattern {5111111111/31111111/3111/11/1}
 Group   3 Type H   : 4s2p2d contracted to 2s2p2d pattern {31/11/11}

Atom   0C    basis set group =>   1
Atom   1C    basis set group =>   1
Atom   2O    basis set group =>   2
Atom   3C    basis set group =>   1
Atom   4O    basis set group =>   2
Atom   5C    basis set group =>   1
Atom   6C    basis set group =>   1
Atom   7C    basis set group =>   1
Atom   8C    basis set group =>   1
Atom   9H    basis set group =>   3
Atom  10H    basis set group =>   3
Atom  11H    basis set group =>   3
Atom  12H    basis set group =>   3
Atom  13H    basis set group =>   3
Atom  14H    basis set group =>   3
Atom  15H    basis set group =>   3
Atom  16H    basis set group =>   3
Atom  17H    basis set group =>   3
Atom  18H    basis set group =>   3
Atom  19H    basis set group =>   3
Atom  20H    basis set group =>   3
------------------------------------------------------------------------------
                           ORCA GTO INTEGRAL CALCULATION
                           -- RI-GTO INTEGRALS CHOSEN --
------------------------------------------------------------------------------

                         BASIS SET STATISTICS AND STARTUP INFO

Gaussian basis set:
 # of primitive gaussian shells          ...  252
 # of primitive gaussian functions       ...  510
 # of contracted shells                  ...  147
 # of contracted basis functions         ...  351
 Highest angular momentum                ...    3
 Maximum contraction depth               ...    6
Auxiliary gaussian basis set:
 # of primitive gaussian shells          ...  393
 # of primitive gaussian functions       ... 1113
 # of contracted shells                  ...  297
 # of contracted aux-basis functions     ...  895
 Highest angular momentum                ...    4
 Maximum contraction depth               ...    5
Ratio of auxiliary to basis functions    ...  2.55
Integral package used                  ... LIBINT
 One Electron integrals                  ... done
 Ordering auxiliary basis shells         ... done
 Integral threshhold             Thresh  ...  2.500e-11
 Primitive cut-off               TCut    ...  2.500e-12
 Pre-screening matrix                    ... done
 Shell pair data                         ... 
 Ordering of the shell pairs             ... done (   0.002 sec) 10141 of 10878 pairs
 Determination of significant pairs      ... done (   0.000 sec)
 Creation of shell pair data             ... done (   0.002 sec)
 Storage of shell pair data              ... done (   0.002 sec)
 Shell pair data done in (   0.006 sec)
 Computing two index integrals           ... done
 Cholesky decomposition of the V-matrix  ... done


Timings:
 Total evaluation time                   ...   0.426 sec (  0.007 min)
 One electron matrix time                ...   0.107 sec (  0.002 min) = 25.2%
 Schwartz matrix evaluation time         ...   0.219 sec (  0.004 min) = 51.4%
 Two index repulsion integral time       ...   0.026 sec (  0.000 min) =  6.2%
 Cholesky decomposition of V             ...   0.039 sec (  0.001 min) =  9.2%
 Three index repulsion integral time     ...   0.000 sec (  0.000 min) =  0.0%

-------------------------------------------------------------------------------
                                 ORCA SCF
-------------------------------------------------------------------------------

------------
SCF SETTINGS
------------
Hamiltonian:
 Ab initio Hamiltonian  Method          .... Hartree-Fock(GTOs)
 RI-approximation to the Coulomb term is turned on
   Number of auxiliary basis functions  .... 895
   RI-JK (J+K treated both via RI)      .... on


General Settings:
 Integral files         IntName         .... dsgdb9nsd_042138
 Hartree-Fock type      HFTyp           .... RHF
 Total Charge           Charge          ....    0
 Multiplicity           Mult            ....    1
 Number of Electrons    NEL             ....   70
 Basis Dimension        Dim             ....  351
 Nuclear Repulsion      ENuc            ....    487.3606846694 Eh

Convergence Acceleration:
 DIIS                   CNVDIIS         .... on
   Start iteration      DIISMaxIt       ....    12
   Startup error        DIISStart       ....  0.200000
   # of expansion vecs  DIISMaxEq       ....     5
   Bias factor          DIISBfac        ....   1.050
   Max. coefficient     DIISMaxC        ....  10.000
 Newton-Raphson         CNVNR           .... off
 SOSCF                  CNVSOSCF        .... on
   Start iteration      SOSCFMaxIt      ....   150
   Startup grad/error   SOSCFStart      ....  0.003300
 Level Shifting         CNVShift        .... on
   Level shift para.    LevelShift      ....    0.2500
   Turn off err/grad.   ShiftErr        ....    0.0010
 Zerner damping         CNVZerner       .... off
 Static damping         CNVDamp         .... on
   Fraction old density DampFac         ....    0.7000
   Max. Damping (<1)    DampMax         ....    0.9800
   Min. Damping (>=0)   DampMin         ....    0.0000
   Turn off err/grad.   DampErr         ....    0.1000
 Fernandez-Rico         CNVRico         .... off

SCF Procedure:
 Maximum # iterations   MaxIter         ....   125
 SCF integral mode      SCFMode         .... Direct
   Integral package                     .... LIBINT
 Reset frequeny         DirectResetFreq ....    20
 Integral Threshold     Thresh          ....  2.500e-11 Eh
 Primitive CutOff       TCut            ....  2.500e-12 Eh

Convergence Tolerance:
 Convergence Check Mode ConvCheckMode   .... Total+1el-Energy
 Energy Change          TolE            ....  1.000e-08 Eh
 1-El. energy change                    ....  1.000e-05 Eh
 Orbital Gradient       TolG            ....  1.000e-05
 Orbital Rotation angle TolX            ....  1.000e-05
 DIIS Error             TolErr          ....  5.000e-07


Diagonalization of the overlap matrix:
Smallest eigenvalue                        ... 8.662e-05
Time for diagonalization                   ...    0.036 sec
Threshold for overlap eigenvalues          ... 1.000e-08
Number of eigenvalues below threshold      ... 0
Time for construction of square roots      ...    0.020 sec
Total time needed                          ...    0.057 sec

-------------------
DFT GRID GENERATION
-------------------

General Integration Accuracy     IntAcc      ...  4.340
Radial Grid Type                 RadialGrid  ... Gauss-Chebyshev
Angular Grid (max. acc.)         AngularGrid ... Lebedev-110
Angular grid pruning method      GridPruning ... 3 (G Style)
Weight generation scheme         WeightScheme... Becke
Basis function cutoff            BFCut       ...    1.0000e-11
Integration weight cutoff        WCut        ...    1.0000e-14
Grids for H and He will be reduced by one unit

# of grid points (after initial pruning)     ...  24552 (   0.0 sec)
# of grid points (after weights+screening)   ...  22283 (   0.1 sec)
nearest neighbour list constructed           ...    0.0 sec
Grid point re-assignment to atoms done       ...    0.0 sec
Grid point division into batches done        ...    0.0 sec
Reduced shell lists constructed in    1.5 sec

Total number of grid points                  ...    22283
Total number of batches                      ...      357
Average number of points per batch           ...       62
Average number of grid points per atom       ...     1061
Average number of shells per batch           ...   100.78 (68.56%)
Average number of basis functions per batch  ...   246.09 (70.11%)
Average number of large shells per batch     ...    78.04 (77.44%)
Average number of large basis fcns per batch ...   186.28 (75.70%)
Average number of aux-shells per batch       ...   100.78 (33.93%)
Average number of aux functions per batch    ...   246.09 (  inf%)
Maximum spatial batch extension              ...  21.55, 23.24, 20.90 au
Average spatial batch extension              ...   3.51,  3.48,  3.40 au

Time for grid setup =    1.686 sec

------------------------------
INITIAL GUESS: MODEL POTENTIAL
------------------------------
Loading Hartree-Fock densities                     ... done
Calculating cut-offs                               ... done
Setting up the integral package                    ... done
Initializing the effective Hamiltonian             ... done
Starting the Coulomb interaction                   ... done (   0.8 sec)
Reading the grid                                   ... done
Mapping shells                                     ... done
Starting the XC term evaluation                    ... done (   0.8 sec)
Transforming the Hamiltonian                       ... done (   0.0 sec)
Diagonalizing the Hamiltonian                      ... done (   0.0 sec)
Back transforming the eigenvectors                 ... done (   0.0 sec)
Now organizing SCF variables                       ... done
                      ------------------
                      INITIAL GUESS DONE (   3.5 sec)
                      ------------------
--------------
SCF ITERATIONS
--------------
ITER       Energy         Delta-E        Max-DP      RMS-DP      [F,P]     Damp
  0   -421.5173244868   0.000000000000 0.02981106  0.00070102  0.2960912 0.7000
  1   -421.3848806696   0.132443817195 0.03028334  0.00073892  0.2479951 0.7000
                               ***Turning on DIIS***
  2   -421.4278113135  -0.042930643883 0.02160099  0.00053549  0.1810173 0.7000
  3   -422.7053704113  -1.277559097761 0.01498000  0.00030331  0.1269211 0.7000
  4   -421.9218954116   0.783474999640 0.03639428  0.00076933  0.0840179 0.0000
  5   -421.9989088203  -0.077013408683 0.00740084  0.00015787  0.0181965 0.0000
  6   -421.8186009785   0.180307841792 0.00346428  0.00008650  0.0074459 0.0000
  7   -421.8431746553  -0.024573676787 0.00150190  0.00004537  0.0051903 0.0000
                      *** Initiating the SOSCF procedure ***
                           *** Shutting down DIIS ***
                      *** Re-Reading the Fockian *** 
                      *** Removing any level shift *** 
ITER      Energy       Delta-E        Grad      Rot      Max-DP    RMS-DP
  8   -421.82219446   0.0209801963  0.000540  0.000540  0.001331  0.000036
  9   -421.89027507  -0.0680806097  0.000080  0.000159  0.000330  0.000010
 10   -421.89027606  -0.0000009940  0.000046  0.000066  0.000139  0.000005
 11   -421.89027620  -0.0000001362  0.000008  0.000012  0.000046  0.000001
                  ***Gradient check signals convergence***
              ***Rediagonalizing the Fockian in SOSCF/NRSCF***

               *****************************************************
               *                     SUCCESS                       *
               *           SCF CONVERGED AFTER  12 CYCLES          *
               *****************************************************


----------------
TOTAL SCF ENERGY
----------------

Total Energy       :         -421.89027621 Eh          -11480.21806 eV

Components:
Nuclear Repulsion  :          487.36068467 Eh           13261.75844 eV
Electronic Energy  :         -909.25096088 Eh          -24741.97650 eV

One Electron Energy:        -1541.79026383 Eh          -41954.24599 eV
Two Electron Energy:          632.53930295 Eh           17212.26949 eV

Virial components:
Potential Energy   :         -843.22512338 Eh          -22945.32212 eV
Kinetic Energy     :          421.33484717 Eh           11465.10407 eV
Virial Ratio       :            2.00131826


---------------
SCF CONVERGENCE
---------------

  Last Energy change         ...   -8.2567e-09  Tolerance :   1.0000e-08
  Last MAX-Density change    ...    1.1876e-05  Tolerance :   1.0000e-07
  Last RMS-Density change    ...    2.4663e-07  Tolerance :   5.0000e-09
  Last Orbital Gradient      ...    1.9832e-06  Tolerance :   1.0000e-05
  Last Orbital Rotation      ...    3.3935e-06  Tolerance :   1.0000e-05

             **** THE GBW FILE WAS UPDATED (dsgdb9nsd_042138.gbw) ****
             **** DENSITY FILE WAS UPDATED (dsgdb9nsd_042138.scfp.tmp) ****
             **** ENERGY FILE WAS UPDATED (dsgdb9nsd_042138.en.tmp) ****
----------------
ORBITAL ENERGIES
----------------

  NO   OCC          E(Eh)            E(eV) 
   0   2.0000     -20.557299      -559.3926 
   1   2.0000     -20.549660      -559.1847 
   2   2.0000     -11.323566      -308.1299 
   3   2.0000     -11.285585      -307.0964 
   4   2.0000     -11.265965      -306.5625 
   5   2.0000     -11.237082      -305.7765 
   6   2.0000     -11.233676      -305.6839 
   7   2.0000     -11.228342      -305.5387 
   8   2.0000     -11.228185      -305.5344 
   9   2.0000      -1.404521       -38.2189 
  10   2.0000      -1.339603       -36.4525 
  11   2.0000      -1.101851       -29.9829 
  12   2.0000      -1.030304       -28.0360 
  13   2.0000      -0.988376       -26.8951 
  14   2.0000      -0.900282       -24.4979 
  15   2.0000      -0.877178       -23.8692 
  16   2.0000      -0.794672       -21.6241 
  17   2.0000      -0.738739       -20.1021 
  18   2.0000      -0.700889       -19.0722 
  19   2.0000      -0.687189       -18.6994 
  20   2.0000      -0.663612       -18.0578 
  21   2.0000      -0.650286       -17.6952 
  22   2.0000      -0.619428       -16.8555 
  23   2.0000      -0.594268       -16.1709 
  24   2.0000      -0.585794       -15.9403 
  25   2.0000      -0.557604       -15.1732 
  26   2.0000      -0.544962       -14.8292 
  27   2.0000      -0.526780       -14.3344 
  28   2.0000      -0.500387       -13.6162 
  29   2.0000      -0.492723       -13.4077 
  30   2.0000      -0.473282       -12.8787 
  31   2.0000      -0.463458       -12.6113 
  32   2.0000      -0.436109       -11.8671 
  33   2.0000      -0.412800       -11.2329 
  34   2.0000      -0.361445        -9.8354 
  35   0.0000       0.130119         3.5407 
  36   0.0000       0.143017         3.8917 
  37   0.0000       0.156724         4.2647 
  38   0.0000       0.166929         4.5424 
  39   0.0000       0.184850         5.0300 
  40   0.0000       0.199587         5.4310 
  41   0.0000       0.201148         5.4735 
  42   0.0000       0.204523         5.5654 
  43   0.0000       0.214498         5.8368 
  44   0.0000       0.229746         6.2517 
  45   0.0000       0.239573         6.5191 
  46   0.0000       0.242453         6.5975 
  47   0.0000       0.260902         7.0995 
  48   0.0000       0.264016         7.1842 
  49   0.0000       0.275862         7.5066 
  50   0.0000       0.307625         8.3709 
  51   0.0000       0.320205         8.7132 
  52   0.0000       0.321382         8.7453 
  53   0.0000       0.332272         9.0416 
  54   0.0000       0.342923         9.3314 
  55   0.0000       0.350622         9.5409 
  56   0.0000       0.356826         9.7097 
  57   0.0000       0.362333         9.8596 
  58   0.0000       0.380440        10.3523 
  59   0.0000       0.395985        10.7753 
  60   0.0000       0.429140        11.6775 
  61   0.0000       0.436759        11.8848 
  62   0.0000       0.459919        12.5150 
  63   0.0000       0.465622        12.6702 
  64   0.0000       0.482667        13.1340 
  65   0.0000       0.492891        13.4123 
  66   0.0000       0.500010        13.6060 
  67   0.0000       0.516592        14.0572 
  68   0.0000       0.522204        14.2099 
  69   0.0000       0.527592        14.3565 
  70   0.0000       0.541101        14.7241 
  71   0.0000       0.546218        14.8633 
  72   0.0000       0.560037        15.2394 
  73   0.0000       0.565122        15.3778 
  74   0.0000       0.575255        15.6535 
  75   0.0000       0.577869        15.7246 
  76   0.0000       0.586908        15.9706 
  77   0.0000       0.596063        16.2197 
  78   0.0000       0.597843        16.2681 
  79   0.0000       0.611393        16.6368 
  80   0.0000       0.616709        16.7815 
  81   0.0000       0.624605        16.9964 
  82   0.0000       0.631297        17.1785 
  83   0.0000       0.646643        17.5960 
  84   0.0000       0.652752        17.7623 
  85   0.0000       0.660628        17.9766 
  86   0.0000       0.684964        18.6388 
  87   0.0000       0.687284        18.7020 
  88   0.0000       0.708828        19.2882 
  89   0.0000       0.732491        19.9321 
  90   0.0000       0.744373        20.2554 
  91   0.0000       0.756350        20.5813 
  92   0.0000       0.787221        21.4214 
  93   0.0000       0.800188        21.7742 
  94   0.0000       0.809864        22.0375 
  95   0.0000       0.825439        22.4613 
  96   0.0000       0.842655        22.9298 
  97   0.0000       0.859730        23.3944 
  98   0.0000       0.869848        23.6698 
  99   0.0000       0.876922        23.8623 
 100   0.0000       0.908846        24.7309 
 101   0.0000       0.912906        24.8414 
 102   0.0000       0.939636        25.5688 
 103   0.0000       0.946782        25.7632 
 104   0.0000       0.952864        25.9288 
 105   0.0000       0.958842        26.0914 
 106   0.0000       0.980678        26.6856 
 107   0.0000       1.040079        28.3020 
 108   0.0000       1.050526        28.5863 
 109   0.0000       1.068507        29.0755 
 110   0.0000       1.109218        30.1834 
 111   0.0000       1.115002        30.3407 
 112   0.0000       1.122056        30.5327 
 113   0.0000       1.165475        31.7142 
 114   0.0000       1.183371        32.2012 
 115   0.0000       1.186341        32.2820 
 116   0.0000       1.191680        32.4273 
 117   0.0000       1.219589        33.1867 
 118   0.0000       1.237888        33.6847 
 119   0.0000       1.246355        33.9150 
 120   0.0000       1.268756        34.5246 
 121   0.0000       1.283096        34.9148 
 122   0.0000       1.305521        35.5250 
 123   0.0000       1.315855        35.8062 
 124   0.0000       1.337063        36.3833 
 125   0.0000       1.367736        37.2180 
 126   0.0000       1.374733        37.4084 
 127   0.0000       1.384652        37.6783 
 128   0.0000       1.414357        38.4866 
 129   0.0000       1.420654        38.6580 
 130   0.0000       1.438270        39.1373 
 131   0.0000       1.443227        39.2722 
 132   0.0000       1.465493        39.8781 
 133   0.0000       1.484922        40.4068 
 134   0.0000       1.513146        41.1748 
 135   0.0000       1.532105        41.6907 
 136   0.0000       1.543249        41.9939 
 137   0.0000       1.566287        42.6208 
 138   0.0000       1.654988        45.0345 
 139   0.0000       1.681298        45.7504 
 140   0.0000       1.722513        46.8720 
 141   0.0000       1.725214        46.9455 
 142   0.0000       1.752106        47.6772 
 143   0.0000       1.769340        48.1462 
 144   0.0000       1.807974        49.1975 
 145   0.0000       1.809281        49.2331 
 146   0.0000       1.829671        49.7879 
 147   0.0000       1.836558        49.9753 
 148   0.0000       1.858748        50.5791 
 149   0.0000       1.884117        51.2694 
 150   0.0000       1.899253        51.6813 
 151   0.0000       1.911045        52.0022 
 152   0.0000       1.915183        52.1148 
 153   0.0000       1.919166        52.2232 
 154   0.0000       1.939489        52.7762 
 155   0.0000       1.953779        53.1650 
 156   0.0000       1.967438        53.5367 
 157   0.0000       1.993024        54.2329 
 158   0.0000       2.009207        54.6733 
 159   0.0000       2.018186        54.9176 
 160   0.0000       2.033269        55.3281 
 161   0.0000       2.048347        55.7384 
 162   0.0000       2.066408        56.2298 
 163   0.0000       2.095567        57.0233 
 164   0.0000       2.111773        57.4643 
 165   0.0000       2.119004        57.6610 
 166   0.0000       2.152250        58.5657 
 167   0.0000       2.177370        59.2493 
 168   0.0000       2.193470        59.6874 
 169   0.0000       2.198295        59.8187 
 170   0.0000       2.210921        60.1622 
 171   0.0000       2.238856        60.9224 
 172   0.0000       2.244043        61.0635 
 173   0.0000       2.259815        61.4927 
 174   0.0000       2.269023        61.7432 
 175   0.0000       2.297680        62.5231 
 176   0.0000       2.307568        62.7921 
 177   0.0000       2.329082        63.3775 
 178   0.0000       2.346611        63.8545 
 179   0.0000       2.381498        64.8039 
 180   0.0000       2.399959        65.3062 
 181   0.0000       2.429918        66.1214 
 182   0.0000       2.447886        66.6104 
 183   0.0000       2.489516        67.7432 
 184   0.0000       2.506585        68.2076 
 185   0.0000       2.529083        68.8198 
 186   0.0000       2.542719        69.1909 
 187   0.0000       2.583627        70.3041 
 188   0.0000       2.593570        70.5746 
 189   0.0000       2.602346        70.8134 
 190   0.0000       2.626149        71.4612 
 191   0.0000       2.640237        71.8445 
 192   0.0000       2.664926        72.5163 
 193   0.0000       2.675348        72.7999 
 194   0.0000       2.719061        73.9894 
 195   0.0000       2.731148        74.3183 
 196   0.0000       2.734193        74.4012 
 197   0.0000       2.760307        75.1118 
 198   0.0000       2.777802        75.5878 
 199   0.0000       2.808425        76.4211 
 200   0.0000       2.831900        77.0599 
 201   0.0000       2.848347        77.5075 
 202   0.0000       2.851445        77.5918 
 203   0.0000       2.868572        78.0578 
 204   0.0000       2.881209        78.4017 
 205   0.0000       2.891684        78.6867 
 206   0.0000       2.908141        79.1345 
 207   0.0000       2.928391        79.6856 
 208   0.0000       2.929512        79.7161 
 209   0.0000       2.943389        80.0937 
 210   0.0000       2.963108        80.6303 
 211   0.0000       2.970888        80.8420 
 212   0.0000       2.974822        80.9490 
 213   0.0000       2.993970        81.4701 
 214   0.0000       3.004588        81.7590 
 215   0.0000       3.024014        82.2876 
 216   0.0000       3.034988        82.5862 
 217   0.0000       3.060516        83.2809 
 218   0.0000       3.070709        83.5583 
 219   0.0000       3.076407        83.7133 
 220   0.0000       3.088465        84.0414 
 221   0.0000       3.103515        84.4509 
 222   0.0000       3.124419        85.0198 
 223   0.0000       3.139925        85.4417 
 224   0.0000       3.157340        85.9156 
 225   0.0000       3.185179        86.6731 
 226   0.0000       3.215735        87.5046 
 227   0.0000       3.233636        87.9917 
 228   0.0000       3.262891        88.7878 
 229   0.0000       3.275078        89.1194 
 230   0.0000       3.317583        90.2760 
 231   0.0000       3.325331        90.4869 
 232   0.0000       3.352246        91.2193 
 233   0.0000       3.358051        91.3772 
 234   0.0000       3.363219        91.5179 
 235   0.0000       3.394995        92.3825 
 236   0.0000       3.405391        92.6654 
 237   0.0000       3.444110        93.7190 
 238   0.0000       3.452832        93.9563 
 239   0.0000       3.464200        94.2657 
 240   0.0000       3.481575        94.7385 
 241   0.0000       3.506032        95.4040 
 242   0.0000       3.517844        95.7254 
 243   0.0000       3.526820        95.9697 
 244   0.0000       3.540957        96.3543 
 245   0.0000       3.554375        96.7195 
 246   0.0000       3.570139        97.1484 
 247   0.0000       3.593995        97.7976 
 248   0.0000       3.596458        97.8646 
 249   0.0000       3.602545        98.0302 
 250   0.0000       3.608068        98.1805 
 251   0.0000       3.627187        98.7008 
 252   0.0000       3.638867        99.0186 
 253   0.0000       3.660666        99.6118 
 254   0.0000       3.684257       100.2537 
 255   0.0000       3.697283       100.6082 
 256   0.0000       3.701206       100.7149 
 257   0.0000       3.710793       100.9758 
 258   0.0000       3.719505       101.2129 
 259   0.0000       3.741460       101.8103 
 260   0.0000       3.768637       102.5498 
 261   0.0000       3.786601       103.0386 
 262   0.0000       3.804483       103.5253 
 263   0.0000       3.815049       103.8128 
 264   0.0000       3.825332       104.0926 
 265   0.0000       3.831437       104.2587 
 266   0.0000       3.863251       105.1244 
 267   0.0000       3.871162       105.3397 
 268   0.0000       3.926376       106.8421 
 269   0.0000       3.929307       106.9219 
 270   0.0000       3.938925       107.1836 
 271   0.0000       3.962804       107.8334 
 272   0.0000       4.004649       108.9720 
 273   0.0000       4.022537       109.4588 
 274   0.0000       4.033121       109.7468 
 275   0.0000       4.074665       110.8773 
 276   0.0000       4.098149       111.5163 
 277   0.0000       4.116815       112.0242 
 278   0.0000       4.143802       112.7586 
 279   0.0000       4.153370       113.0189 
 280   0.0000       4.163406       113.2920 
 281   0.0000       4.196689       114.1977 
 282   0.0000       4.208027       114.5062 
 283   0.0000       4.225336       114.9772 
 284   0.0000       4.254528       115.7716 
 285   0.0000       4.291941       116.7897 
 286   0.0000       4.323503       117.6485 
 287   0.0000       4.324948       117.6878 
 288   0.0000       4.363918       118.7482 
 289   0.0000       4.372894       118.9925 
 290   0.0000       4.430269       120.5537 
 291   0.0000       4.449218       121.0694 
 292   0.0000       4.470263       121.6420 
 293   0.0000       4.529151       123.2445 
 294   0.0000       4.582784       124.7039 
 295   0.0000       4.633526       126.0847 
 296   0.0000       4.659474       126.7907 
 297   0.0000       4.689236       127.6006 
 298   0.0000       4.705572       128.0451 
 299   0.0000       4.757299       129.4527 
 300   0.0000       4.788233       130.2944 
 301   0.0000       4.827374       131.3595 
 302   0.0000       4.835721       131.5867 
 303   0.0000       4.900483       133.3489 
 304   0.0000       4.943370       134.5159 
 305   0.0000       4.968425       135.1977 
 306   0.0000       5.031105       136.9033 
 307   0.0000       5.039730       137.1380 
 308   0.0000       5.064384       137.8089 
 309   0.0000       5.114106       139.1619 
 310   0.0000       5.138281       139.8197 
 311   0.0000       5.180006       140.9551 
 312   0.0000       5.239029       142.5612 
 313   0.0000       5.262581       143.2021 
 314   0.0000       5.288773       143.9148 
 315   0.0000       5.336734       145.2199 
 316   0.0000       5.452177       148.3613 
 317   0.0000       5.706941       155.2938 
 318   0.0000       5.760982       156.7643 
 319   0.0000       5.810860       158.1215 
 320   0.0000       5.830009       158.6426 
 321   0.0000       5.862012       159.5134 
 322   0.0000       6.109658       166.2522 
 323   0.0000       6.240293       169.8070 
 324   0.0000       6.287044       171.0792 
 325   0.0000       6.347702       172.7297 
 326   0.0000       6.406735       174.3361 
 327   0.0000       6.499630       176.8639 
 328   0.0000       6.585012       179.1873 
 329   0.0000       6.658784       181.1947 
 330   0.0000       6.689357       182.0266 
 331   0.0000       6.779546       184.4808 
 332   0.0000       7.165302       194.9778 
 333   0.0000       7.219982       196.4657 
 334   0.0000       7.258990       197.5272 
 335   0.0000       7.295879       198.5309 
 336   0.0000       7.452087       202.7816 
 337   0.0000       7.561372       205.7554 
 338   0.0000       7.693361       209.3470 
 339   0.0000       7.759582       211.1489 
 340   0.0000       7.774080       211.5435 
 341   0.0000       7.850055       213.6108 
 342   0.0000      23.347003       635.3042 
 343   0.0000      23.545171       640.6967 
 344   0.0000      23.586949       641.8335 
 345   0.0000      23.596196       642.0851 
 346   0.0000      23.680266       644.3728 
 347   0.0000      23.700825       644.9322 
 348   0.0000      23.994595       652.9261 
 349   0.0000      45.695299      1243.4323 
 350   0.0000      45.781293      1245.7723 

                    ********************************
                    * MULLIKEN POPULATION ANALYSIS *
                    ********************************

-----------------------
MULLIKEN ATOMIC CHARGES
-----------------------
   0 C :   -0.199214
   1 C :    0.038043
   2 O :   -0.410230
   3 C :    0.202317
   4 O :   -0.408317
   5 C :    0.050541
   6 C :   -0.196717
   7 C :   -0.217131
   8 C :   -0.058822
   9 H :    0.086567
  10 H :    0.097304
  11 H :    0.104752
  12 H :    0.114441
  13 H :    0.061126
  14 H :    0.098925
  15 H :    0.105498
  16 H :    0.104007
  17 H :    0.121875
  18 H :    0.117557
  19 H :    0.108592
  20 H :    0.078886
Sum of atomic charges:    0.0000000

--------------------------------
MULLIKEN REDUCED ORBITAL CHARGES
--------------------------------
  0 C s       :     3.167084  s :     3.167084
      pz      :     1.019556  p :     2.920727
      px      :     0.974308
      py      :     0.926864
      dz2     :     0.018645  d :     0.105117
      dxz     :     0.015473
      dyz     :     0.016238
      dx2y2   :     0.028528
      dxy     :     0.026233
      f0      :     0.000875  f :     0.006286
      f+1     :     0.000724
      f-1     :     0.000771
      f+2     :     0.000735
      f-2     :     0.000349
      f+3     :     0.001379
      f-3     :     0.001453
  1 C s       :     3.148257  s :     3.148257
      pz      :     0.693763  p :     2.658340
      px      :     0.942724
      py      :     1.021853
      dz2     :     0.030310  d :     0.144150
      dxz     :     0.047198
      dyz     :     0.026681
      dx2y2   :     0.022299
      dxy     :     0.017663
      f0      :     0.003091  f :     0.011209
      f+1     :     0.002750
      f-1     :     0.001795
      f+2     :     0.000792
      f-2     :     0.000787
      f+3     :     0.000663
      f-3     :     0.001331
  2 O s       :     3.767472  s :     3.767472
      pz      :     1.332512  p :     4.600989
      px      :     1.795852
      py      :     1.472625
      dz2     :     0.012244  d :     0.039619
      dxz     :     0.005857
      dyz     :     0.009293
      dx2y2   :     0.007686
      dxy     :     0.004540
      f0      :     0.000497  f :     0.002150
      f+1     :     0.000404
      f-1     :     0.000277
      f+2     :     0.000269
      f-2     :     0.000244
      f+3     :     0.000241
      f-3     :     0.000216
  3 C s       :     3.135492  s :     3.135492
      pz      :     0.874803  p :     2.450884
      px      :     0.860740
      py      :     0.715340
      dz2     :     0.042446  d :     0.193899
      dxz     :     0.027815
      dyz     :     0.036515
      dx2y2   :     0.030717
      dxy     :     0.056406
      f0      :     0.001096  f :     0.017408
      f+1     :     0.002356
      f-1     :     0.003247
      f+2     :     0.002685
      f-2     :     0.003005
      f+3     :     0.002142
      f-3     :     0.002878
  4 O s       :     3.771395  s :     3.771395
      pz      :     1.678635  p :     4.597216
      px      :     1.588791
      py      :     1.329790
      dz2     :     0.004737  d :     0.037581
      dxz     :     0.007043
      dyz     :     0.005599
      dx2y2   :     0.007170
      dxy     :     0.013033
      f0      :     0.000332  f :     0.002124
      f+1     :     0.000143
      f-1     :     0.000303
      f+2     :     0.000302
      f-2     :     0.000457
      f+3     :     0.000324
      f-3     :     0.000264
  5 C s       :     3.137221  s :     3.137221
      pz      :     0.919779  p :     2.656660
      px      :     1.014189
      py      :     0.722691
      dz2     :     0.026560  d :     0.144585
      dxz     :     0.027308
      dyz     :     0.035946
      dx2y2   :     0.019948
      dxy     :     0.034822
      f0      :     0.001732  f :     0.010994
      f+1     :     0.001280
      f-1     :     0.001956
      f+2     :     0.001346
      f-2     :     0.001129
      f+3     :     0.001298
      f-3     :     0.002252
  6 C s       :     3.169582  s :     3.169582
      pz      :     0.933524  p :     2.918142
      px      :     0.986847
      py      :     0.997772
      dz2     :     0.029353  d :     0.100742
      dxz     :     0.030679
      dyz     :     0.011214
      dx2y2   :     0.012469
      dxy     :     0.017027
      f0      :     0.001461  f :     0.008251
      f+1     :     0.001739
      f-1     :     0.000690
      f+2     :     0.000734
      f-2     :     0.001186
      f+3     :     0.001545
      f-3     :     0.000896
  7 C s       :     3.186842  s :     3.186842
      pz      :     0.984198  p :     2.911857
      px      :     0.962231
      py      :     0.965428
      dz2     :     0.026765  d :     0.110178
      dxz     :     0.029453
      dyz     :     0.009970
      dx2y2   :     0.024374
      dxy     :     0.019616
      f0      :     0.001197  f :     0.008254
      f+1     :     0.001431
      f-1     :     0.000346
      f+2     :     0.000929
      f-2     :     0.001276
      f+3     :     0.001859
      f-3     :     0.001215
  8 C s       :     3.066093  s :     3.066093
      pz      :     0.991622  p :     2.880463
      px      :     0.951843
      py      :     0.936998
      dz2     :     0.022043  d :     0.106041
      dxz     :     0.012204
      dyz     :     0.020660
      dx2y2   :     0.028414
      dxy     :     0.022720
      f0      :     0.001075  f :     0.006226
      f+1     :     0.000476
      f-1     :     0.000865
      f+2     :     0.000967
      f-2     :     0.000500
      f+3     :     0.001148
      f-3     :     0.001195
  9 H s       :     0.891554  s :     0.891554
      pz      :     0.012744  p :     0.021879
      px      :     0.004458
      py      :     0.004678
 10 H s       :     0.880663  s :     0.880663
      pz      :     0.007536  p :     0.022033
      px      :     0.008909
      py      :     0.005588
 11 H s       :     0.873835  s :     0.873835
      pz      :     0.003202  p :     0.021414
      px      :     0.003567
      py      :     0.014645
 12 H s       :     0.863503  s :     0.863503
      pz      :     0.005935  p :     0.022056
      px      :     0.009799
      py      :     0.006323
 13 H s       :     0.918212  s :     0.918212
      pz      :     0.003731  p :     0.020662
      px      :     0.011052
      py      :     0.005879
 14 H s       :     0.879989  s :     0.879989
      pz      :     0.012438  p :     0.021086
      px      :     0.005318
      py      :     0.003330
 15 H s       :     0.873067  s :     0.873067
      pz      :     0.008046  p :     0.021434
      px      :     0.009288
      py      :     0.004101
 16 H s       :     0.874354  s :     0.874354
      pz      :     0.003719  p :     0.021638
      px      :     0.010632
      py      :     0.007287
 17 H s       :     0.854681  s :     0.854681
      pz      :     0.008967  p :     0.023444
      px      :     0.008184
      py      :     0.006293
 18 H s       :     0.859344  s :     0.859344
      pz      :     0.015392  p :     0.023099
      px      :     0.003705
      py      :     0.004002
 19 H s       :     0.869348  s :     0.869348
      pz      :     0.004545  p :     0.022059
      px      :     0.012987
      py      :     0.004527
 20 H s       :     0.898417  s :     0.898417
      pz      :     0.014034  p :     0.022697
      px      :     0.003744
      py      :     0.004920


                     *******************************
                     * LOEWDIN POPULATION ANALYSIS *
                     *******************************

----------------------
LOEWDIN ATOMIC CHARGES
----------------------
   0 C :   -0.241127
   1 C :   -0.280159
   2 O :    0.106379
   3 C :   -0.349990
   4 O :    0.108086
   5 C :   -0.260928
   6 C :   -0.179255
   7 C :   -0.155593
   8 C :   -0.232368
   9 H :    0.132586
  10 H :    0.129846
  11 H :    0.121629
  12 H :    0.122497
  13 H :    0.094647
  14 H :    0.110048
  15 H :    0.118567
  16 H :    0.122803
  17 H :    0.135301
  18 H :    0.137874
  19 H :    0.132015
  20 H :    0.127140

-------------------------------
LOEWDIN REDUCED ORBITAL CHARGES
-------------------------------
  0 C s       :     2.782703  s :     2.782703
      pz      :     1.012827  p :     3.028520
      px      :     1.020844
      py      :     0.994850
      dz2     :     0.064889  d :     0.393573
      dxz     :     0.059238
      dyz     :     0.066465
      dx2y2   :     0.098532
      dxy     :     0.104449
      f0      :     0.004469  f :     0.036330
      f+1     :     0.003281
      f-1     :     0.003887
      f+2     :     0.004785
      f-2     :     0.004501
      f+3     :     0.009255
      f-3     :     0.006152
  1 C s       :     2.792121  s :     2.792121
      pz      :     0.811551  p :     2.879320
      px      :     1.029266
      py      :     1.038504
      dz2     :     0.135649  d :     0.537825
      dxz     :     0.159807
      dyz     :     0.091646
      dx2y2   :     0.089406
      dxy     :     0.061316
      f0      :     0.019324  f :     0.070893
      f+1     :     0.016503
      f-1     :     0.012698
      f+2     :     0.006409
      f-2     :     0.006730
      f+3     :     0.004312
      f-3     :     0.004917
  2 O s       :     3.275193  s :     3.275193
      pz      :     1.366070  p :     4.509499
      px      :     1.656154
      py      :     1.487274
      dz2     :     0.029500  d :     0.102975
      dxz     :     0.017763
      dyz     :     0.029299
      dx2y2   :     0.014450
      dxy     :     0.011963
      f0      :     0.001101  f :     0.005955
      f+1     :     0.000852
      f-1     :     0.001475
      f+2     :     0.000699
      f-2     :     0.000664
      f+3     :     0.000575
      f-3     :     0.000590
  3 C s       :     2.805443  s :     2.805443
      pz      :     0.919355  p :     2.727400
      px      :     0.952747
      py      :     0.855298
      dz2     :     0.136255  d :     0.703951
      dxz     :     0.114497
      dyz     :     0.134570
      dx2y2   :     0.124760
      dxy     :     0.193868
      f0      :     0.009451  f :     0.113196
      f+1     :     0.013028
      f-1     :     0.020184
      f+2     :     0.018028
      f-2     :     0.016759
      f+3     :     0.014429
      f-3     :     0.021318
  4 O s       :     3.277908  s :     3.277908
      pz      :     1.587952  p :     4.509942
      px      :     1.574649
      py      :     1.347341
      dz2     :     0.011701  d :     0.098030
      dxz     :     0.014549
      dyz     :     0.020044
      dx2y2   :     0.023579
      dxy     :     0.028157
      f0      :     0.000617  f :     0.006034
      f+1     :     0.000474
      f-1     :     0.000968
      f+2     :     0.000838
      f-2     :     0.000922
      f+3     :     0.001152
      f-3     :     0.001063
  5 C s       :     2.789795  s :     2.789795
      pz      :     1.022842  p :     2.869532
      px      :     1.020170
      py      :     0.826520
      dz2     :     0.113363  d :     0.531304
      dxz     :     0.094379
      dyz     :     0.118295
      dx2y2   :     0.070364
      dxy     :     0.134904
      f0      :     0.009025  f :     0.070296
      f+1     :     0.005303
      f-1     :     0.014777
      f+2     :     0.010406
      f-2     :     0.008328
      f+3     :     0.010099
      f-3     :     0.012358
  6 C s       :     2.787939  s :     2.787939
      pz      :     1.000186  p :     2.971310
      px      :     1.042925
      py      :     0.928199
      dz2     :     0.091386  d :     0.380513
      dxz     :     0.146264
      dyz     :     0.054189
      dx2y2   :     0.037731
      dxy     :     0.050944
      f0      :     0.007440  f :     0.039493
      f+1     :     0.009738
      f-1     :     0.004502
      f+2     :     0.004534
      f-2     :     0.004550
      f+3     :     0.004168
      f-3     :     0.004560
  7 C s       :     2.781834  s :     2.781834
      pz      :     0.990179  p :     2.926884
      px      :     1.045987
      py      :     0.890718
      dz2     :     0.113862  d :     0.406198
      dxz     :     0.101425
      dyz     :     0.028969
      dx2y2   :     0.085765
      dxy     :     0.076178
      f0      :     0.004999  f :     0.040678
      f+1     :     0.009472
      f-1     :     0.002546
      f+2     :     0.006467
      f-2     :     0.005527
      f+3     :     0.005545
      f-3     :     0.006122
  8 C s       :     2.766647  s :     2.766647
      pz      :     1.017906  p :     3.029912
      px      :     1.004570
      py      :     1.007435
      dz2     :     0.091075  d :     0.398196
      dxz     :     0.045004
      dyz     :     0.079770
      dx2y2   :     0.103144
      dxy     :     0.079203
      f0      :     0.004878  f :     0.037613
      f+1     :     0.003461
      f-1     :     0.005035
      f+2     :     0.006915
      f-2     :     0.004308
      f+3     :     0.007529
      f-3     :     0.005487
  9 H s       :     0.810188  s :     0.810188
      pz      :     0.030504  p :     0.057226
      px      :     0.013183
      py      :     0.013539
 10 H s       :     0.812192  s :     0.812192
      pz      :     0.020726  p :     0.057962
      px      :     0.021928
      py      :     0.015309
 11 H s       :     0.822238  s :     0.822238
      pz      :     0.009413  p :     0.056133
      px      :     0.011867
      py      :     0.034852
 12 H s       :     0.817183  s :     0.817183
      pz      :     0.016341  p :     0.060320
      px      :     0.024815
      py      :     0.019164
 13 H s       :     0.849077  s :     0.849077
      pz      :     0.011314  p :     0.056276
      px      :     0.028590
      py      :     0.016371
 14 H s       :     0.835022  s :     0.835022
      pz      :     0.029124  p :     0.054930
      px      :     0.015456
      py      :     0.010351
 15 H s       :     0.824269  s :     0.824269
      pz      :     0.020236  p :     0.057163
      px      :     0.025735
      py      :     0.011192
 16 H s       :     0.820982  s :     0.820982
      pz      :     0.011382  p :     0.056214
      px      :     0.027008
      py      :     0.017824
 17 H s       :     0.805309  s :     0.805309
      pz      :     0.022433  p :     0.059390
      px      :     0.019937
      py      :     0.017020
 18 H s       :     0.803854  s :     0.803854
      pz      :     0.034762  p :     0.058271
      px      :     0.011211
      py      :     0.012298
 19 H s       :     0.810841  s :     0.810841
      pz      :     0.014437  p :     0.057144
      px      :     0.029425
      py      :     0.013282
 20 H s       :     0.814146  s :     0.814146
      pz      :     0.032420  p :     0.058713
      px      :     0.012072
      py      :     0.014221


                      *****************************
                      * MAYER POPULATION ANALYSIS *
                      *****************************

  NA   - Mulliken gross atomic population
  ZA   - Total nuclear charge
  QA   - Mulliken gross atomic charge
  VA   - Mayer's total valence
  BVA  - Mayer's bonded valence
  FA   - Mayer's free valence

  ATOM       NA         ZA         QA         VA         BVA        FA
  0 C      6.1992     6.0000    -0.1992     3.8907     3.8907    -0.0000
  1 C      5.9620     6.0000     0.0380     3.8774     3.8774     0.0000
  2 O      8.4102     8.0000    -0.4102     1.8443     1.8443     0.0000
  3 C      5.7977     6.0000     0.2023     4.0272     4.0272    -0.0000
  4 O      8.4083     8.0000    -0.4083     1.8145     1.8145     0.0000
  5 C      5.9495     6.0000     0.0505     3.9080     3.9080    -0.0000
  6 C      6.1967     6.0000    -0.1967     3.8658     3.8658     0.0000
  7 C      6.2171     6.0000    -0.2171     3.9291     3.9291    -0.0000
  8 C      6.0588     6.0000    -0.0588     3.8041     3.8041     0.0000
  9 H      0.9134     1.0000     0.0866     0.9799     0.9799    -0.0000
 10 H      0.9027     1.0000     0.0973     0.9802     0.9802    -0.0000
 11 H      0.8952     1.0000     0.1048     0.9619     0.9619     0.0000
 12 H      0.8856     1.0000     0.1144     0.9728     0.9728     0.0000
 13 H      0.9389     1.0000     0.0611     0.9581     0.9581    -0.0000
 14 H      0.9011     1.0000     0.0989     0.9675     0.9675    -0.0000
 15 H      0.8945     1.0000     0.1055     0.9715     0.9715    -0.0000
 16 H      0.8960     1.0000     0.1040     0.9748     0.9748    -0.0000
 17 H      0.8781     1.0000     0.1219     0.9719     0.9719     0.0000
 18 H      0.8824     1.0000     0.1176     0.9728     0.9728    -0.0000
 19 H      0.8914     1.0000     0.1086     0.9723     0.9723     0.0000
 20 H      0.9211     1.0000     0.0789     0.9817     0.9817     0.0000

  Mayer bond orders larger than 0.1
B(  0-C ,  1-C ) :   0.9753 B(  0-C ,  8-C ) :   0.9586 B(  0-C ,  9-H ) :   0.9853 
B(  0-C , 10-H ) :   0.9789 B(  1-C ,  2-O ) :   0.8982 B(  1-C , 11-H ) :   0.9868 
B(  1-C , 12-H ) :   0.9970 B(  2-O ,  3-C ) :   1.0025 B(  3-C ,  4-O ) :   0.9523 
B(  3-C , 13-H ) :   0.9933 B(  3-C , 14-H ) :   0.9871 B(  4-O ,  5-C ) :   0.9082 
B(  5-C ,  6-C ) :   0.9469 B(  5-C , 15-H ) :   1.0133 B(  5-C , 16-H ) :   0.9945 
B(  6-C ,  7-C ) :   1.9944 B(  6-C , 17-H ) :   0.9796 B(  7-C ,  8-C ) :   0.9353 
B(  7-C , 18-H ) :   0.9741 B(  8-C , 19-H ) :   0.9920 B(  8-C , 20-H ) :   0.9911 


-------
TIMINGS
-------

Total SCF time: 0 days 0 hours 2 min 49 sec 

Total time                  ....     169.646 sec
Sum of individual times     ....     174.713 sec  (103.0%)

Fock matrix formation       ....     167.979 sec  ( 99.0%)
Diagonalization             ....       0.725 sec  (  0.4%)
Density matrix formation    ....       0.048 sec  (  0.0%)
Population analysis         ....       0.191 sec  (  0.1%)
Initial guess               ....       3.544 sec  (  2.1%)
Orbital Transformation      ....       0.000 sec  (  0.0%)
Orbital Orthonormalization  ....       0.000 sec  (  0.0%)
DIIS solution               ....       0.217 sec  (  0.1%)
SOSCF solution              ....       0.324 sec  (  0.2%)

   <<< Auxbasis replaced with dsgdb9nsd_042138.AUXC.tmp (Dim=864) >>> 


------------------------------------------------------------------------------
                              ORCA MP2 CALCULATION
------------------------------------------------------------------------------

Freezing NCore=18 chemical core electrons

   <<< Use J-auxbasis for calculation of Separable RI-J derivative contributions dsgdb9nsd_042138.AUXJ.tmp (Dim=895) >>> 


---------------------
RI-MP2 ENERGY+DENSITY
---------------------
Dimension of the basis                    ...  351
Memory devoted to MP2                     ... 2000 MB   
Data format for buffers                   ... DOUBLE
Compression type for matrix containers    ... UNCOMPRESSED
Overall scaling of the MP2 energy         ...   1.000e+00 Eh
Calculating two index integrals           ... done (    0.020 sec)
Cholesky decomposition of V**-1           ... done (    0.137 sec)

-----------------
RI-TRANSFORMATION (AUX index driven)
-----------------

Dimension of the orbital-basis         ... 351
Dimension of the aux-basis             ... 864
Transformation of internal MOs         ...    0-  34
Transformation of internal/external MOs...    0-  34 to   35- 350
Number Format for Storage              ... Double (8 Byte)
Integral mode                          ... Direct

First Phase: integral generation and transformation of MO indices
  Aux angular momentum 0               ... done (    1.143 sec)
  Aux angular momentum 1               ... done (    1.527 sec)
  Aux angular momentum 2               ... done (    1.553 sec)
  Aux angular momentum 3               ... done (    1.133 sec)
  Aux angular momentum 4               ... done (    0.498 sec)
Closing buffer VIJ ( 0.00 GB; CompressionRatio= 1.94)
Closing buffer VIA ( 0.07 GB; CompressionRatio= 1.00)
  Phase 1 completed in     5.957 sec
Second Phase: sorting and transformation of aux index

IJ-Transformation
Memory available                       ... 1985 MB 
Max. # MO pairs treated in a batch     ... 35    
# of internal orbitals                 ... 35
# batches for internal orbitals        ... 1
Closing buffer IJV ( 0.00 GB; CompressionRatio= 1.00)
(ij|v) transformation done in     0.242 sec

IA-Transformation
Memory available                       ... 1985 MB 
Max. # MO pairs treated in a batch     ... 35    
# of internal orbitals                 ... 35
# batches for internal orbitals        ... 1
Closing buffer IAV ( 0.07 GB; CompressionRatio= 1.00)
(ia|v) transformation done in     1.730 sec

  Phase 2 completed in     1.997 sec
RI-Integral transformation completed in     7.954 sec
Opening buffers                              ... done
Frozen core precalculation                   ... done

Starting loop over batches of integrals:

Operator 0  - window                       ... (  9- 34)x( 35-350)
Operator 0  - Memory available             ...  2000 MB
Operator 0  - Memory needed per MO         ...   4.2 MB
Operator 0  - Number of orbitals per batch ... 26
Operator 0  - Number of batches            ... 1

OPERATOR  0   PASS   0:  MOs     9 ...   34
  Reading integrals       ... ok
  Internal MO  11
  Internal MO  14
  Internal MO  17
  Internal MO  20
  Internal MO  23
  Internal MO  26
  Internal MO  29
  Internal MO  32
Time spent in pair loops =    49.642 sec
Deleting buffer (Ka|jb)[aa] ...done

-----------------------------------------------
 RI-MP2 CORRELATION ENERGY:     -1.609043301 Eh
-----------------------------------------------


---------------------
MP2 DENSITY FORMATION
---------------------

Completing the external part of the density      ... done
Storing the unrelaxed density                    ... done

Calculating G(D)                                 ... done
Completing the Lagrangian                        ... done
Solving the Z-vector equations                   ... 

------------------------------------------------------------------------------
                           ORCA CP-SCF CALCULATION
------------------------------------------------------------------------------

Input orbitals are from        ... dsgdb9nsd_042138.gbw
Input Perturbation             ... dsgdb9nsd_042138.pin.tmp
Wavefunction output            ... dsgdb9nsd_042138.pout.tmp
Perturbation mode              ... Real perturbation
Solver                         ... POPLE
Max. number of iterations      ... 128
Convergence tolerance          ... 1.000e-08
Integral handling              ... Direct
Number of perturbations        ... 1
Number of operators            ... 1
Orbital ranges used for CP-SCF:
 Operator 0:  Orbitals   0... 34  to  35...350
Variables per vector in CP-SCF ... 11060
Number of vectors sought       ... 1
     CP-SCF ITERATION   0: 
     CP-SCF ITERATION   1:      0.000864237
     CP-SCF ITERATION   2:      0.000099088
     CP-SCF ITERATION   3:      0.000008375
     CP-SCF ITERATION   4:      0.000000790
     CP-SCF ITERATION   5:      0.000000046
     CP-SCF ITERATION   6:      0.000000004
done
Finalizing the relaxed density                   ... done
Transforming P to the AO basis                   ... done
Storing the relaxed density                      ... done

                *********************************************
                * UNRELAXED MP2 DENSITY POPULATION ANALYSIS *
                *********************************************

------------------------------------------------------------------------------
                           ORCA POPULATION ANALYSIS
------------------------------------------------------------------------------
Input electron density              ... dsgdb9nsd_042138.pmp2ur
BaseName (.gbw .S,...)              ... dsgdb9nsd_042138

                    ********************************
                    * MULLIKEN POPULATION ANALYSIS *
                    ********************************

-----------------------
MULLIKEN ATOMIC CHARGES
-----------------------
   0 C :   -0.207681
   1 C :    0.021638
   2 O :   -0.392081
   3 C :    0.178820
   4 O :   -0.389712
   5 C :    0.032839
   6 C :   -0.199168
   7 C :   -0.220765
   8 C :   -0.067215
   9 H :    0.090380
  10 H :    0.101207
  11 H :    0.108762
  12 H :    0.117370
  13 H :    0.063894
  14 H :    0.102344
  15 H :    0.108977
  16 H :    0.107437
  17 H :    0.125827
  18 H :    0.121527
  19 H :    0.112923
  20 H :    0.082677
Sum of atomic charges:   -0.0000000

--------------------------------
MULLIKEN REDUCED ORBITAL CHARGES
--------------------------------
  0 C s       :     3.164758  s :     3.164758
      pz      :     1.014036  p :     2.902666
      px      :     0.968064
      py      :     0.920566
      dz2     :     0.023602  d :     0.130080
      dxz     :     0.021117
      dyz     :     0.022034
      dx2y2   :     0.032093
      dxy     :     0.031234
      f0      :     0.001432  f :     0.010176
      f+1     :     0.001267
      f-1     :     0.001282
      f+2     :     0.001323
      f-2     :     0.000917
      f+3     :     0.002008
      f-3     :     0.001948
  1 C s       :     3.146412  s :     3.146412
      pz      :     0.696751  p :     2.651980
      px      :     0.937538
      py      :     1.017690
      dz2     :     0.033194  d :     0.165148
      dxz     :     0.050934
      dyz     :     0.031519
      dx2y2   :     0.027100
      dxy     :     0.022401
      f0      :     0.003483  f :     0.014821
      f+1     :     0.003237
      f-1     :     0.002330
      f+2     :     0.001365
      f-2     :     0.001327
      f+3     :     0.001274
      f-3     :     0.001806
  2 O s       :     3.761683  s :     3.761683
      pz      :     1.319201  p :     4.556665
      px      :     1.779032
      py      :     1.458431
      dz2     :     0.017924  d :     0.068790
      dxz     :     0.011879
      dyz     :     0.015086
      dx2y2   :     0.013393
      dxy     :     0.010508
      f0      :     0.000903  f :     0.004944
      f+1     :     0.000798
      f-1     :     0.000699
      f+2     :     0.000665
      f-2     :     0.000637
      f+3     :     0.000634
      f-3     :     0.000609
  3 C s       :     3.135092  s :     3.135092
      pz      :     0.875145  p :     2.453822
      px      :     0.860623
      py      :     0.718054
      dz2     :     0.046606  d :     0.211586
      dxz     :     0.031585
      dyz     :     0.039536
      dx2y2   :     0.034682
      dxy     :     0.059177
      f0      :     0.001600  f :     0.020680
      f+1     :     0.002810
      f-1     :     0.003759
      f+2     :     0.003119
      f-2     :     0.003414
      f+3     :     0.002664
      f-3     :     0.003315
  4 O s       :     3.765779  s :     3.765779
      pz      :     1.662238  p :     4.551957
      px      :     1.573117
      py      :     1.316602
      dz2     :     0.010806  d :     0.067059
      dxz     :     0.012824
      dyz     :     0.011734
      dx2y2   :     0.013105
      dxy     :     0.018590
      f0      :     0.000716  f :     0.004917
      f+1     :     0.000542
      f-1     :     0.000698
      f+2     :     0.000698
      f-2     :     0.000852
      f+3     :     0.000734
      f-3     :     0.000678
  5 C s       :     3.136396  s :     3.136396
      pz      :     0.914934  p :     2.650771
      px      :     1.010487
      py      :     0.725349
      dz2     :     0.030175  d :     0.165406
      dxz     :     0.031782
      dyz     :     0.040358
      dx2y2   :     0.024273
      dxy     :     0.038817
      f0      :     0.002235  f :     0.014589
      f+1     :     0.001807
      f-1     :     0.002533
      f+2     :     0.001838
      f-2     :     0.001686
      f+3     :     0.001804
      f-3     :     0.002686
  6 C s       :     3.167806  s :     3.167806
      pz      :     0.926679  p :     2.895940
      px      :     0.979662
      py      :     0.989599
      dz2     :     0.033309  d :     0.123519
      dxz     :     0.035071
      dyz     :     0.016558
      dx2y2   :     0.017119
      dxy     :     0.021462
      f0      :     0.001990  f :     0.011903
      f+1     :     0.002384
      f-1     :     0.001240
      f+2     :     0.001296
      f-2     :     0.001697
      f+3     :     0.001971
      f-3     :     0.001326
  7 C s       :     3.185174  s :     3.185174
      pz      :     0.978962  p :     2.892023
      px      :     0.954266
      py      :     0.958794
      dz2     :     0.031467  d :     0.131657
      dxz     :     0.033471
      dyz     :     0.015023
      dx2y2   :     0.028313
      dxy     :     0.023383
      f0      :     0.001712  f :     0.011912
      f+1     :     0.002124
      f-1     :     0.000901
      f+2     :     0.001457
      f-2     :     0.001734
      f+3     :     0.002311
      f-3     :     0.001672
  8 C s       :     3.063068  s :     3.063068
      pz      :     0.986111  p :     2.862683
      px      :     0.946487
      py      :     0.930085
      dz2     :     0.027209  d :     0.131302
      dxz     :     0.017511
      dyz     :     0.026112
      dx2y2   :     0.032595
      dxy     :     0.027875
      f0      :     0.001605  f :     0.010162
      f+1     :     0.001078
      f-1     :     0.001407
      f+2     :     0.001565
      f-2     :     0.001019
      f+3     :     0.001771
      f-3     :     0.001717
  9 H s       :     0.884567  s :     0.884567
      pz      :     0.013696  p :     0.025053
      px      :     0.005572
      py      :     0.005785
 10 H s       :     0.873625  s :     0.873625
      pz      :     0.008569  p :     0.025168
      px      :     0.009928
      py      :     0.006670
 11 H s       :     0.866663  s :     0.866663
      pz      :     0.004358  p :     0.024574
      px      :     0.004709
      py      :     0.015506
 12 H s       :     0.857414  s :     0.857414
      pz      :     0.007038  p :     0.025216
      px      :     0.010757
      py      :     0.007420
 13 H s       :     0.912069  s :     0.912069
      pz      :     0.004969  p :     0.024037
      px      :     0.012001
      py      :     0.007067
 14 H s       :     0.873449  s :     0.873449
      pz      :     0.013365  p :     0.024207
      px      :     0.006391
      py      :     0.004450
 15 H s       :     0.866367  s :     0.866367
      pz      :     0.009090  p :     0.024656
      px      :     0.010317
      py      :     0.005250
 16 H s       :     0.867817  s :     0.867817
      pz      :     0.004841  p :     0.024746
      px      :     0.011556
      py      :     0.008349
 17 H s       :     0.847669  s :     0.847669
      pz      :     0.009938  p :     0.026504
      px      :     0.009186
      py      :     0.007380
 18 H s       :     0.852269  s :     0.852269
      pz      :     0.016228  p :     0.026204
      px      :     0.004821
      py      :     0.005155
 19 H s       :     0.861873  s :     0.861873
      pz      :     0.005648  p :     0.025204
      px      :     0.013923
      py      :     0.005633
 20 H s       :     0.891385  s :     0.891385
      pz      :     0.014943  p :     0.025938
      px      :     0.004944
      py      :     0.006051


                     *******************************
                     * LOEWDIN POPULATION ANALYSIS *
                     *******************************

----------------------
LOEWDIN ATOMIC CHARGES
----------------------
   0 C :   -0.245498
   1 C :   -0.288533
   2 O :    0.118509
   3 C :   -0.363621
   4 O :    0.120798
   5 C :   -0.269764
   6 C :   -0.181258
   7 C :   -0.158081
   8 C :   -0.235871
   9 H :    0.134227
  10 H :    0.131559
  11 H :    0.123294
  12 H :    0.123834
  13 H :    0.095550
  14 H :    0.111490
  15 H :    0.119885
  16 H :    0.124368
  17 H :    0.137039
  18 H :    0.139563
  19 H :    0.133790
  20 H :    0.128722

-------------------------------
LOEWDIN REDUCED ORBITAL CHARGES
-------------------------------
  0 C s       :     2.781085  s :     2.781085
      pz      :     1.005496  p :     3.002889
      px      :     1.011949
      py      :     0.985444
      dz2     :     0.070517  d :     0.419242
      dxz     :     0.064954
      dyz     :     0.071428
      dx2y2   :     0.103558
      dxy     :     0.108786
      f0      :     0.005276  f :     0.042282
      f+1     :     0.004088
      f-1     :     0.004752
      f+2     :     0.005552
      f-2     :     0.005263
      f+3     :     0.010052
      f-3     :     0.007299
  1 C s       :     2.791175  s :     2.791175
      pz      :     0.810643  p :     2.862785
      px      :     1.021157
      py      :     1.030986
      dz2     :     0.139207  d :     0.558085
      dxz     :     0.162502
      dyz     :     0.095505
      dx2y2   :     0.094322
      dxy     :     0.066549
      f0      :     0.020254  f :     0.076487
      f+1     :     0.017361
      f-1     :     0.013254
      f+2     :     0.007166
      f-2     :     0.007478
      f+3     :     0.005062
      f-3     :     0.005911
  2 O s       :     3.272511  s :     3.272511
      pz      :     1.352576  p :     4.466256
      px      :     1.640620
      py      :     1.473060
      dz2     :     0.035864  d :     0.133577
      dxz     :     0.023865
      dyz     :     0.035062
      dx2y2   :     0.020729
      dxy     :     0.018057
      f0      :     0.001624  f :     0.009147
      f+1     :     0.001314
      f-1     :     0.001932
      f+2     :     0.001158
      f-2     :     0.001097
      f+3     :     0.001008
      f-3     :     0.001015
  3 C s       :     2.805557  s :     2.805557
      pz      :     0.916768  p :     2.720352
      px      :     0.949266
      py      :     0.854318
      dz2     :     0.139192  d :     0.719380
      dxz     :     0.118306
      dyz     :     0.137676
      dx2y2   :     0.128047
      dxy     :     0.196159
      f0      :     0.010307  f :     0.118331
      f+1     :     0.013623
      f-1     :     0.020644
      f+2     :     0.018656
      f-2     :     0.017877
      f+3     :     0.015183
      f-3     :     0.022042
  4 O s       :     3.275251  s :     3.275251
      pz      :     1.572309  p :     4.465667
      px      :     1.559386
      py      :     1.333972
      dz2     :     0.017947  d :     0.129072
      dxz     :     0.020833
      dyz     :     0.026518
      dx2y2   :     0.029487
      dxy     :     0.034287
      f0      :     0.001052  f :     0.009212
      f+1     :     0.000892
      f-1     :     0.001403
      f+2     :     0.001282
      f-2     :     0.001420
      f+3     :     0.001634
      f-3     :     0.001529
  5 C s       :     2.788958  s :     2.788958
      pz      :     1.014680  p :     2.853073
      px      :     1.013395
      py      :     0.824998
      dz2     :     0.117903  d :     0.551785
      dxz     :     0.098964
      dyz     :     0.121538
      dx2y2   :     0.074755
      dxy     :     0.138625
      f0      :     0.010059  f :     0.075947
      f+1     :     0.006312
      f-1     :     0.015490
      f+2     :     0.011044
      f-2     :     0.009108
      f+3     :     0.010893
      f-3     :     0.013042
  6 C s       :     2.785526  s :     2.785526
      pz      :     0.991038  p :     2.942859
      px      :     1.032742
      py      :     0.919080
      dz2     :     0.096443  d :     0.406952
      dxz     :     0.150202
      dyz     :     0.059321
      dx2y2   :     0.044140
      dxy     :     0.056846
      f0      :     0.008487  f :     0.045921
      f+1     :     0.010875
      f-1     :     0.005207
      f+2     :     0.005372
      f-2     :     0.005508
      f+3     :     0.005070
      f-3     :     0.005401
  7 C s       :     2.779120  s :     2.779120
      pz      :     0.982055  p :     2.900984
      px      :     1.035496
      py      :     0.883434
      dz2     :     0.118138  d :     0.430882
      dxz     :     0.106323
      dyz     :     0.034734
      dx2y2   :     0.090126
      dxy     :     0.081562
      f0      :     0.006047  f :     0.047095
      f+1     :     0.010403
      f-1     :     0.003192
      f+2     :     0.007275
      f-2     :     0.006533
      f+3     :     0.006607
      f-3     :     0.007039
  8 C s       :     2.765010  s :     2.765010
      pz      :     1.009726  p :     3.002907
      px      :     0.996158
      py      :     0.997023
      dz2     :     0.096136  d :     0.424215
      dxz     :     0.050963
      dyz     :     0.084598
      dx2y2   :     0.108402
      dxy     :     0.084117
      f0      :     0.005774  f :     0.043740
      f+1     :     0.004223
      f-1     :     0.005949
      f+2     :     0.007746
      f-2     :     0.005142
      f+3     :     0.008369
      f-3     :     0.006537
  9 H s       :     0.802969  s :     0.802969
      pz      :     0.033119  p :     0.062804
      px      :     0.014635
      py      :     0.015050
 10 H s       :     0.805000  s :     0.805000
      pz      :     0.022555  p :     0.063441
      px      :     0.023975
      py      :     0.016910
 11 H s       :     0.815143  s :     0.815143
      pz      :     0.010967  p :     0.061562
      px      :     0.013184
      py      :     0.037410
 12 H s       :     0.810244  s :     0.810244
      pz      :     0.018303  p :     0.065922
      px      :     0.026811
      py      :     0.020808
 13 H s       :     0.842168  s :     0.842168
      pz      :     0.012913  p :     0.062282
      px      :     0.030961
      py      :     0.018408
 14 H s       :     0.828219  s :     0.828219
      pz      :     0.031460  p :     0.060291
      px      :     0.016997
      py      :     0.011834
 15 H s       :     0.817181  s :     0.817181
      pz      :     0.022206  p :     0.062934
      px      :     0.027854
      py      :     0.012873
 16 H s       :     0.814025  s :     0.814025
      pz      :     0.012736  p :     0.061607
      px      :     0.029055
      py      :     0.019816
 17 H s       :     0.798288  s :     0.798288
      pz      :     0.024384  p :     0.064673
      px      :     0.021786
      py      :     0.018504
 18 H s       :     0.796799  s :     0.796799
      pz      :     0.037413  p :     0.063639
      px      :     0.012597
      py      :     0.013629
 19 H s       :     0.803561  s :     0.803561
      pz      :     0.015902  p :     0.062649
      px      :     0.032006
      py      :     0.014741
 20 H s       :     0.806740  s :     0.806740
      pz      :     0.035228  p :     0.064538
      px      :     0.013519
      py      :     0.015790


                      *****************************
[...]
      px      :     1.552635
      py      :     1.294944
      dz2     :     0.011054  d :     0.065867
      dxz     :     0.012336
      dyz     :     0.011872
      dx2y2   :     0.013118
      dxy     :     0.017488
      f0      :     0.000697  f :     0.004879
      f+1     :     0.000548
      f-1     :     0.000704
      f+2     :     0.000704
      f-2     :     0.000823
      f+3     :     0.000728
      f-3     :     0.000676
  5 C s       :     3.175346  s :     3.175346
      pz      :     0.937582  p :     2.734515
      px      :     1.049023
      py      :     0.747910
      dz2     :     0.027863  d :     0.156495
      dxz     :     0.029733
      dyz     :     0.040911
      dx2y2   :     0.021960
      dxy     :     0.036028
      f0      :     0.002060  f :     0.013838
      f+1     :     0.001672
      f-1     :     0.002482
      f+2     :     0.001721
      f-2     :     0.001605
      f+3     :     0.001780
      f-3     :     0.002518
  6 C s       :     3.176400  s :     3.176400
      pz      :     0.916779  p :     2.863953
      px      :     0.962638
      py      :     0.984536
      dz2     :     0.028478  d :     0.109582
      dxz     :     0.033874
      dyz     :     0.015432
      dx2y2   :     0.014377
      dxy     :     0.017421
      f0      :     0.001810  f :     0.011199
      f+1     :     0.002239
      f-1     :     0.001248
      f+2     :     0.001263
      f-2     :     0.001603
      f+3     :     0.001795
      f-3     :     0.001241
  7 C s       :     3.197053  s :     3.197053
      pz      :     0.969907  p :     2.872107
      px      :     0.942249
      py      :     0.959951
      dz2     :     0.029166  d :     0.115862
      dxz     :     0.028447
      dyz     :     0.012912
      dx2y2   :     0.025336
      dxy     :     0.020002
      f0      :     0.001544  f :     0.011225
      f+1     :     0.002088
      f-1     :     0.000895
      f+2     :     0.001413
      f-2     :     0.001562
      f+3     :     0.002148
      f-3     :     0.001575
  8 C s       :     3.112608  s :     3.112608
      pz      :     1.006370  p :     2.906942
      px      :     0.967980
      py      :     0.932593
      dz2     :     0.023246  d :     0.117524
      dxz     :     0.014374
      dyz     :     0.025117
      dx2y2   :     0.028099
      dxy     :     0.026687
      f0      :     0.001511  f :     0.009620
      f+1     :     0.001072
      f-1     :     0.001285
      f+2     :     0.001547
      f-2     :     0.000910
      f+3     :     0.001762
      f-3     :     0.001532
  9 H s       :     0.864025  s :     0.864025
      pz      :     0.012478  p :     0.024035
      px      :     0.005719
      py      :     0.005837
 10 H s       :     0.853708  s :     0.853708
      pz      :     0.008170  p :     0.024146
      px      :     0.009392
      py      :     0.006584
 11 H s       :     0.849615  s :     0.849615
      pz      :     0.004464  p :     0.023481
      px      :     0.004986
      py      :     0.014031
 12 H s       :     0.845487  s :     0.845487
      pz      :     0.006776  p :     0.024143
      px      :     0.010077
      py      :     0.007290
 13 H s       :     0.900622  s :     0.900622
      pz      :     0.005055  p :     0.022992
      px      :     0.011044
      py      :     0.006893
 14 H s       :     0.857242  s :     0.857242
      pz      :     0.012231  p :     0.022923
      px      :     0.006188
      py      :     0.004505
 15 H s       :     0.848196  s :     0.848196
      pz      :     0.008660  p :     0.023621
      px      :     0.009648
      py      :     0.005314
 16 H s       :     0.850834  s :     0.850834
      pz      :     0.005094  p :     0.023630
      px      :     0.010618
      py      :     0.007917
 17 H s       :     0.847230  s :     0.847230
      pz      :     0.009232  p :     0.025142
      px      :     0.008698
      py      :     0.007212
 18 H s       :     0.851877  s :     0.851877
      pz      :     0.014594  p :     0.024879
      px      :     0.004973
      py      :     0.005311
 19 H s       :     0.845115  s :     0.845115
      pz      :     0.005739  p :     0.024233
      px      :     0.012718
      py      :     0.005776
 20 H s       :     0.870116  s :     0.870116
      pz      :     0.013650  p :     0.025032
      px      :     0.005235
      py      :     0.006147


                     *******************************
                     * LOEWDIN POPULATION ANALYSIS *
                     *******************************

----------------------
LOEWDIN ATOMIC CHARGES
----------------------
   0 C :   -0.265745
   1 C :   -0.320170
   2 O :    0.153328
   3 C :   -0.408710
   4 O :    0.157345
   5 C :   -0.302092
   6 C :   -0.185476
   7 C :   -0.167185
   8 C :   -0.255271
   9 H :    0.144143
  10 H :    0.140692
  11 H :    0.132418
  12 H :    0.129555
  13 H :    0.100183
  14 H :    0.118866
  15 H :    0.126759
  16 H :    0.132256
  17 H :    0.143033
  18 H :    0.145409
  19 H :    0.143671
  20 H :    0.136991

-------------------------------
LOEWDIN REDUCED ORBITAL CHARGES
-------------------------------
  0 C s       :     2.787685  s :     2.787685
      pz      :     1.018540  p :     3.026829
      px      :     1.019967
      py      :     0.988321
      dz2     :     0.065645  d :     0.409288
      dxz     :     0.062722
      dyz     :     0.071610
      dx2y2   :     0.100312
      dxy     :     0.108999
      f0      :     0.005222  f :     0.041944
      f+1     :     0.003984
      f-1     :     0.004629
      f+2     :     0.005625
      f-2     :     0.005232
      f+3     :     0.010098
      f-3     :     0.007153
  1 C s       :     2.799018  s :     2.799018
      pz      :     0.822210  p :     2.894684
      px      :     1.030052
      py      :     1.042422
      dz2     :     0.136474  d :     0.551892
      dxz     :     0.162311
      dyz     :     0.095231
      dx2y2   :     0.092224
      dxy     :     0.065652
      f0      :     0.019827  f :     0.074576
      f+1     :     0.016848
      f-1     :     0.012883
      f+2     :     0.006909
      f-2     :     0.007356
      f+3     :     0.005038
      f-3     :     0.005716
  2 O s       :     3.277914  s :     3.277914
      pz      :     1.343062  p :     4.424027
      px      :     1.617129
      py      :     1.463836
      dz2     :     0.035906  d :     0.135391
      dxz     :     0.024646
      dyz     :     0.035632
      dx2y2   :     0.020731
      dxy     :     0.018476
      f0      :     0.001669  f :     0.009339
      f+1     :     0.001344
      f-1     :     0.001976
      f+2     :     0.001174
      f-2     :     0.001113
      f+3     :     0.001030
      f-3     :     0.001033
  3 C s       :     2.815923  s :     2.815923
      pz      :     0.927225  p :     2.758308
      px      :     0.964015
      py      :     0.867068
      dz2     :     0.138769  d :     0.719768
      dxz     :     0.116391
      dyz     :     0.138202
      dx2y2   :     0.129529
      dxy     :     0.196878
      f0      :     0.010386  f :     0.114711
      f+1     :     0.012962
      f-1     :     0.019816
      f+2     :     0.018286
      f-2     :     0.017584
      f+3     :     0.014326
      f-3     :     0.021352
  4 O s       :     3.281320  s :     3.281320
      pz      :     1.549775  p :     4.420688
      px      :     1.545198
      py      :     1.325715
      dz2     :     0.018588  d :     0.131212
      dxz     :     0.020815
      dyz     :     0.027388
      dx2y2   :     0.030088
      dxy     :     0.034333
      f0      :     0.001072  f :     0.009435
      f+1     :     0.000913
      f-1     :     0.001413
      f+2     :     0.001319
      f-2     :     0.001459
      f+3     :     0.001677
      f-3     :     0.001581
  5 C s       :     2.797507  s :     2.797507
      pz      :     1.024037  p :     2.885569
      px      :     1.026138
      py      :     0.835393
      dz2     :     0.116486  d :     0.544939
      dxz     :     0.097381
      dyz     :     0.122050
      dx2y2   :     0.072750
      dxy     :     0.136272
      f0      :     0.009836  f :     0.074078
      f+1     :     0.006175
      f-1     :     0.015196
      f+2     :     0.010857
      f-2     :     0.008709
      f+3     :     0.010758
      f-3     :     0.012546
  6 C s       :     2.792161  s :     2.792161
      pz      :     0.994649  p :     2.948399
      px      :     1.033631
      py      :     0.920119
      dz2     :     0.094551  d :     0.399014
      dxz     :     0.149279
      dyz     :     0.058531
      dx2y2   :     0.042670
      dxy     :     0.053983
      f0      :     0.008339  f :     0.045902
      f+1     :     0.010713
      f-1     :     0.005325
      f+2     :     0.005405
      f-2     :     0.005444
      f+3     :     0.005177
      f-3     :     0.005497
  7 C s       :     2.783968  s :     2.783968
      pz      :     0.986314  p :     2.914048
      px      :     1.036153
      py      :     0.891581
      dz2     :     0.115991  d :     0.422299
      dxz     :     0.105924
      dyz     :     0.034044
      dx2y2   :     0.086381
      dxy     :     0.079959
      f0      :     0.005808  f :     0.046871
      f+1     :     0.010416
      f-1     :     0.003255
      f+2     :     0.007315
      f-2     :     0.006488
      f+3     :     0.006379
      f-3     :     0.007209
  8 C s       :     2.771297  s :     2.771297
      pz      :     1.022217  p :     3.027470
      px      :     1.006725
      py      :     0.998529
      dz2     :     0.092383  d :     0.413026
      dxz     :     0.047665
      dyz     :     0.084468
      dx2y2   :     0.104592
      dxy     :     0.083918
      f0      :     0.005619  f :     0.043477
      f+1     :     0.004244
      f-1     :     0.005830
      f+2     :     0.007836
      f-2     :     0.005097
      f+3     :     0.008417
      f-3     :     0.006435
  9 H s       :     0.791752  s :     0.791752
      pz      :     0.033273  p :     0.064105
      px      :     0.015307
      py      :     0.015524
 10 H s       :     0.794638  s :     0.794638
      pz      :     0.022912  p :     0.064670
      px      :     0.024331
      py      :     0.017427
 11 H s       :     0.805014  s :     0.805014
      pz      :     0.011514  p :     0.062568
      px      :     0.013800
      py      :     0.037255
 12 H s       :     0.803449  s :     0.803449
      pz      :     0.018887  p :     0.066996
      px      :     0.026873
      py      :     0.021236
 13 H s       :     0.835991  s :     0.835991
      pz      :     0.013467  p :     0.063826
      px      :     0.031295
      py      :     0.019064
 14 H s       :     0.820031  s :     0.820031
      pz      :     0.031541  p :     0.061103
      px      :     0.017262
      py      :     0.012300
 15 H s       :     0.808936  s :     0.808936
      pz      :     0.022547  p :     0.064305
      px      :     0.028204
      py      :     0.013554
 16 H s       :     0.805223  s :     0.805223
      pz      :     0.013351  p :     0.062520
      px      :     0.028980
      py      :     0.020189
 17 H s       :     0.791875  s :     0.791875
      pz      :     0.024404  p :     0.065092
      px      :     0.022129
      py      :     0.018559
 18 H s       :     0.790425  s :     0.790425
      pz      :     0.036802  p :     0.064166
      px      :     0.013282
      py      :     0.014082
 19 H s       :     0.792418  s :     0.792418
      pz      :     0.016507  p :     0.063911
      px      :     0.032057
      py      :     0.015347
 20 H s       :     0.797124  s :     0.797124
      pz      :     0.035273  p :     0.065885
      px      :     0.014243
      py      :     0.016369


                      *****************************
                      * MAYER POPULATION ANALYSIS *
                      *****************************

  NA   - Mulliken gross atomic population
  ZA   - Total nuclear charge
  QA   - Mulliken gross atomic charge
  VA   - Mayer's total valence
  BVA  - Mayer's bonded valence
  FA   - Mayer's free valence

  ATOM       NA         ZA         QA         VA         BVA        FA
  0 C      6.2463     6.0000    -0.2463     3.9745     3.6560     0.3185
  1 C      6.0547     6.0000    -0.0547     4.0093     3.7080     0.3012
  2 O      8.3098     8.0000    -0.3098     2.2618     1.8496     0.4122
  3 C      5.9254     6.0000     0.0746     4.1864     3.8932     0.2931
  4 O      8.3072     8.0000    -0.3072     2.2356     1.8186     0.4170
  5 C      6.0802     6.0000    -0.0802     4.0703     3.7645     0.3058
  6 C      6.1611     6.0000    -0.1611     3.9501     3.5846     0.3655
  7 C      6.1962     6.0000    -0.1962     4.0456     3.6795     0.3662
  8 C      6.1467     6.0000    -0.1467     3.9211     3.6091     0.3120
  9 H      0.8881     1.0000     0.1119     0.9813     0.9301     0.0512
 10 H      0.8779     1.0000     0.1221     0.9823     0.9323     0.0499
 11 H      0.8731     1.0000     0.1269     0.9639     0.9159     0.0480
 12 H      0.8696     1.0000     0.1304     0.9806     0.9315     0.0491
 13 H      0.9236     1.0000     0.0764     0.9643     0.9125     0.0518
 14 H      0.8802     1.0000     0.1198     0.9645     0.9170     0.0475
 15 H      0.8718     1.0000     0.1282     0.9709     0.9218     0.0491
 16 H      0.8745     1.0000     0.1255     0.9725     0.9239     0.0485
 17 H      0.8724     1.0000     0.1276     0.9764     0.9278     0.0486
 18 H      0.8768     1.0000     0.1232     0.9757     0.9267     0.0490
 19 H      0.8693     1.0000     0.1307     0.9727     0.9235     0.0492
 20 H      0.8951     1.0000     0.1049     0.9845     0.9327     0.0519

  Mayer bond orders larger than 0.1
B(  0-C ,  1-C ) :   0.9210 B(  0-C ,  8-C ) :   0.8998 B(  0-C ,  9-H ) :   0.9256 
B(  0-C , 10-H ) :   0.9222 B(  1-C ,  2-O ) :   0.8981 B(  1-C , 11-H ) :   0.9338 
B(  1-C , 12-H ) :   0.9380 B(  2-O ,  3-C ) :   0.9992 B(  3-C ,  4-O ) :   0.9392 
B(  3-C , 13-H ) :   0.9304 B(  3-C , 14-H ) :   0.9312 B(  4-O ,  5-C ) :   0.8991 
B(  5-C ,  6-C ) :   0.9019 B(  5-C , 15-H ) :   0.9523 B(  5-C , 16-H ) :   0.9383 
B(  6-C ,  7-C ) :   1.7951 B(  6-C , 17-H ) :   0.9281 B(  7-C ,  8-C ) :   0.9110 
B(  7-C , 18-H ) :   0.9244 B(  8-C , 19-H ) :   0.9347 B(  8-C , 20-H ) :   0.9285 



-------
TIMINGS
-------

Total time                :  938.915 sec
Integral trafo            :    7.963 sec (  0.8%)
FC preparation            :    4.333 sec (  0.5%)
I/O of integrals          :    0.061 sec (  0.0%)
K(i,j) Operators          :   11.412 sec (  1.2%)
T(i,j) pair energies      :    1.044 sec (  0.1%)
V-calculation             :    0.020 sec (  0.0%)
V**(-1/2)                 :    0.137 sec (  0.0%)
Gamma(ia|P)               :   11.075 sec (  1.2%)
Gamma-Trafo               :    1.734 sec (  0.2%)
D(virtual)                :    4.249 sec (  0.5%)
D(internal)               :    4.505 sec (  0.5%)
W(virtual)                :    0.000 sec (  0.0%)
W(internal)               :    0.000 sec (  0.0%)
L(virtual)                :   14.920 sec (  1.6%)
L(internal)               :    0.271 sec (  0.0%)
G(D)                      :  123.563 sec ( 13.2%)
G(Z)                      :    0.000 sec (  0.0%)
Z-Vector Solution         :  752.777 sec ( 80.2%)
3-Index Derivative        :    0.000 sec (  0.0%)
2-Index Derivative        :    0.000 sec (  0.0%)
Separable Gradient (RIJ)  :    0.000 sec (  0.0%)
Separable Gradient (X)    :    0.000 sec (  0.0%)


---------------------------------------
MP2 TOTAL ENERGY:     -423.499319509 Eh
---------------------------------------

-------------------------   --------------------
FINAL SINGLE POINT ENERGY      -423.499319508535
-------------------------   --------------------


                            ***************************************
                            *     ORCA property calculations      *
                            ***************************************

                                    ---------------------
                                    Active property flags
                                    ---------------------
   (+) Dipole Moment


------------------------------------------------------------------------------
                       ORCA ELECTRIC PROPERTIES CALCULATION
------------------------------------------------------------------------------

Dipole Moment Calculation                       ... on
Quadrupole Moment Calculation                   ... off
Polarizability Calculation                      ... off
GBWName                                         ... dsgdb9nsd_042138.gbw
Electron density file                           ... dsgdb9nsd_042138.scfp.tmp

-------------
DIPOLE MOMENT
-------------
                                X             Y             Z
Electronic contribution:      3.71347       0.94347      -1.82197
Nuclear contribution   :     -4.35291      -1.55788       2.12234
                        -----------------------------------------
Total Dipole Moment    :     -0.63944      -0.61441       0.30038
                        -----------------------------------------
Magnitude (a.u.)       :      0.93627
Magnitude (Debye)      :      2.37981


                         *** MP2 UNRELAXED DENSITY ***

------------------------------------------------------------------------------
                       ORCA ELECTRIC PROPERTIES CALCULATION
------------------------------------------------------------------------------

Dipole Moment Calculation                       ... on
Quadrupole Moment Calculation                   ... off
Polarizability Calculation                      ... off
GBWName                                         ... dsgdb9nsd_042138.gbw
Electron density file                           ... dsgdb9nsd_042138.pmp2ur

-------------
DIPOLE MOMENT
-------------
                                X             Y             Z
Electronic contribution:      3.73474       0.96612      -1.82808
Nuclear contribution   :     -4.35291      -1.55788       2.12234
                        -----------------------------------------
Total Dipole Moment    :     -0.61817      -0.59176       0.29426
                        -----------------------------------------
Magnitude (a.u.)       :      0.90493
Magnitude (Debye)      :      2.30016


                           *** MP2 RELAXED DENSITY ***

------------------------------------------------------------------------------
                       ORCA ELECTRIC PROPERTIES CALCULATION
------------------------------------------------------------------------------

Dipole Moment Calculation                       ... on
Quadrupole Moment Calculation                   ... off
Polarizability Calculation                      ... off
GBWName                                         ... dsgdb9nsd_042138.gbw
Electron density file                           ... dsgdb9nsd_042138.pmp2re

-------------
DIPOLE MOMENT
-------------
                                X             Y             Z
Electronic contribution:      3.76604       0.99138      -1.82851
Nuclear contribution   :     -4.35291      -1.55788       2.12234
                        -----------------------------------------
Total Dipole Moment    :     -0.58688      -0.56650       0.29383
                        -----------------------------------------
Magnitude (a.u.)       :      0.86700
Magnitude (Debye)      :      2.20373


Timings for individual modules:

Sum of individual times         ...     1112.924 sec (=  18.549 min)
GTO integral calculation        ...        0.588 sec (=   0.010 min)   0.1 %
SCF iterations                  ...      173.270 sec (=   2.888 min)  15.6 %
MP2 module                      ...      939.066 sec (=  15.651 min)  84.4 %
                             ****ORCA TERMINATED NORMALLY****
TOTAL RUN TIME: 0 days 0 hours 18 minutes 33 seconds 446 msec
