
                                 *****************
                                 * O   R   C   A *
                                 *****************

           --- An Ab Initio, DFT and Semiempirical electronic structure package ---

                  #######################################################
                  #                        -***-                        #
                  #  Department of molecular theory and spectroscopy    #
                  #              Directorship: Frank Neese              #
                  # Max Planck Institute for Chemical Energy Conversion #
                  #                  D-45470 Muelheim/Ruhr              #
                  #                       Germany                       #
                  #                                                     #
                  #                  All rights reserved                #
                  #                        -***-                        #
                  #######################################################


                         Program Version 3.0.3 - RELEASE   -


 With contributions from (in alphabetic order):
   Ute Becker             : Parallelization
   Dmytro Bykov           : SCF Hessian
   Dmitry Ganyushin       : Spin-Orbit,Spin-Spin,Magnetic field MRCI
   Andreas Hansen         : Spin unrestricted coupled pair/coupled cluster methods
   Dimitrios Liakos       : Extrapolation schemes; parallel MDCI
   Robert Izsak           : Overlap fitted RIJCOSX, COSX-SCS-MP3
   Christian Kollmar      : KDIIS, OOCD, Brueckner-CCSD(T), CCSD density
   Simone Kossmann        : Meta GGA functionals, TD-DFT gradient, OOMP2, MP2 Hessian
   Taras Petrenko         : DFT Hessian,TD-DFT gradient, ASA and ECA modules, normal mode analysis, Resonance Raman, ABS, FL, XAS/XES, NRVS
   Christoph Reimann      : Effective Core Potentials
   Michael Roemelt        : Restricted open shell CIS
   Christoph Riplinger    : Improved optimizer, TS searches, QM/MM, DLPNO-CCSD
   Barbara Sandhoefer     : DKH picture change effects
   Igor Schapiro          : Molecular dynamics
   Kantharuban Sivalingam : CASSCF convergence, NEVPT2
   Boris Wezisla          : Elementary symmetry handling
   Frank Wennmohs         : Technical directorship


 We gratefully acknowledge several colleagues who have allowed us to
 interface, adapt or use parts of their codes:
   Stefan Grimme, W. Hujo, H. Kruse, T. Risthaus : VdW corrections, initial TS optimization,
                                                   DFT functionals, gCP
   Ed Valeev                                     : LibInt (2-el integral package), F12 methods
   Garnet Chan, S. Sharma, R. Olivares           : DMRG
   Ulf Ekstrom                                   : XCFun DFT Library
   Mihaly Kallay                                 : mrcc  (arbitrary order and MRCC methods)
   Andreas Klamt, Michael Diedenhofen            : otool_cosmo (COSMO solvation model)
   Frank Weinhold                                : gennbo (NPA and NBO analysis)
   Christopher J. Cramer and Donald G. Truhlar   : smd solvation model


 Your calculation uses the libint2 library for the computation of 2-el integrals
 For citations please refer to: http://libint.valeyev.net

 This ORCA versions uses:
   CBLAS   interface :  Fast vector & matrix operations
   LAPACKE interface :  Fast linear algebra routines
   SCALAPACK package :  Parallel linear algebra routines


Your calculation utilizes the basis: Ahlrichs-TZV
Cite in your paper:
H - Kr: A. Schaefer, H. Horn and R. Ahlrichs, J. Chem. Phys. 97, 2571 (1992).

The def2-TZV basis will be loaded
Cite in your paper:
 	F. Weigend, R. Ahlrichs, Phys. Chem. Chem. Phys. 2005, 7, 3297.

================================================================================
                                        WARNINGS
                       Please study these warnings very carefully!
================================================================================
Now building the actual basis set


INFO   : the flag for use of LIBINT has been found!

================================================================================
                                       INPUT FILE
================================================================================
NAME = dsgdb9nsd_130706.inp
|  1> ! RI-MP2 RIJK def2-TZVP def2-TZVP/C def2-TZVP/JK TIGHTSCF
|  2> % maxcore 2000
|  3> % mp2 density relaxed end
|  4> *xyz 0 1
|  5>  O       -0.0086722493    -0.0872709416     0.0033977386 
|  6>  C        0.0090699509     1.1262484490     0.0090499988 
|  7>  N       -1.1539392528     1.8949201673     0.0280483722 
|  8>  N       -1.2436663812     3.2269984452     0.0357094513 
|  9>  C       -0.1051473120     3.8749320806     0.0238943819 
| 10>  N        1.1467463368     3.2836012033     0.0046078977 
| 11>  C        1.1957501514     1.9937424140    -0.0023101086 
| 12>  C       -0.1517150482     5.2996883962     0.0315376802 
| 13>  C       -0.1689830327     6.5015437101     0.0376907355 
| 14>  H       -2.0390291575     1.4016213254     0.0372771954 
| 15>  H        2.1651203752     1.4987044089    -0.0174335758 
| 16>  H       -0.1871492007     7.5638102716     0.0431736427 
| 17> *
| 18> 
| 19>                          ****END OF INPUT****
================================================================================

                       ****************************
                       * Single Point Calculation *
                       ****************************

---------------------------------
CARTESIAN COORDINATES (ANGSTROEM)
---------------------------------
  O     -0.008672   -0.087271    0.003398
  C      0.009070    1.126248    0.009050
  N     -1.153939    1.894920    0.028048
  N     -1.243666    3.226998    0.035709
  C     -0.105147    3.874932    0.023894
  N      1.146746    3.283601    0.004608
  C      1.195750    1.993742   -0.002310
  C     -0.151715    5.299688    0.031538
  C     -0.168983    6.501544    0.037691
  H     -2.039029    1.401621    0.037277
  H      2.165120    1.498704   -0.017434
  H     -0.187149    7.563810    0.043174

----------------------------
CARTESIAN COORDINATES (A.U.)
----------------------------
  NO LB      ZA    FRAG    MASS        X           Y           Z
   0 O     8.0000    0    15.999         -0.016388176142090         -0.164918179073435          0.006420795428653
   1 C     6.0000    0    12.011          0.017139723249113          2.128301127363576          0.017102019244316
   2 N     7.0000    0    14.007         -2.180629162973722          3.580880161841240          0.053003741960290
   3 N     7.0000    0    14.007         -2.350188862432910          6.098143296017686          0.067481083349598
   4 C     6.0000    0    12.011         -0.198699623397972          7.322560419879670          0.045153837930325
   5 N     7.0000    0    14.007          2.167036521629421          6.205107007251279          0.008707664706126
   6 C     6.0000    0    12.011          2.259640310740873          3.767627144043043         -0.004365472593616
   7 C     6.0000    0    12.011         -0.286699891492662         10.014959663938344          0.059597578477191
   8 C     6.0000    0    12.011         -0.319331653082459         12.286137059807304          0.071225167881063
   9 H     1.0000    0     1.008         -3.853206686755182          2.648680448469723          0.070443690346669
  10 H     1.0000    0     1.008          4.091484556100825          2.832140888521332         -0.032944683796957
  11 H     1.0000    0     1.008         -0.353660735505263         14.293529942264522          0.081586360906768

--------------------------------
INTERNAL COORDINATES (ANGSTROEM)
--------------------------------
 O      0   0   0   0.000000     0.000     0.000
 C      1   0   0   1.213662     0.000     0.000
 N      2   1   0   1.394205   122.625     0.000
 N      3   2   1   1.335119   127.316   179.999
 C      4   3   2   1.310032   115.786     0.000
 N      5   4   3   1.384659   125.075     0.000
 C      6   5   4   1.290808   117.461     0.000
 C      5   4   3   1.425538   117.767   180.004
 C      8   5   4   1.201995   178.951   180.011
 H      3   2   1   1.013318   117.409     0.000
 H      7   6   5   1.088563   119.230   179.999
 H      9   8   5   1.062436   179.843   180.112

---------------------------
INTERNAL COORDINATES (A.U.)
---------------------------
 O      0   0   0   0.000000     0.000     0.000
 C      1   0   0   2.293489     0.000     0.000
 N      2   1   0   2.634666   122.625     0.000
 N      3   2   1   2.523009   127.316   179.999
 C      4   3   2   2.475601   115.786     0.000
 N      5   4   3   2.616627   125.075     0.000
 C      6   5   4   2.439273   117.461     0.000
 C      5   4   3   2.693876   117.767   180.004
 C      8   5   4   2.271442   178.951   180.011
 H      3   2   1   1.914893   117.409     0.000
 H      7   6   5   2.057086   119.230   179.999
 H      9   8   5   2.007713   179.843   180.112

---------------------
BASIS SET INFORMATION
---------------------
There are 4 groups of distinct atoms

 Group   1 Type O   : 11s6p2d1f contracted to 5s3p2d1f pattern {62111/411/11/1}
 Group   2 Type C   : 11s6p2d1f contracted to 5s3p2d1f pattern {62111/411/11/1}
 Group   3 Type N   : 11s6p2d1f contracted to 5s3p2d1f pattern {62111/411/11/1}
 Group   4 Type H   : 5s1p contracted to 3s1p pattern {311/1}

Atom   0O    basis set group =>   1
Atom   1C    basis set group =>   2
Atom   2N    basis set group =>   3
Atom   3N    basis set group =>   3
Atom   4C    basis set group =>   2
Atom   5N    basis set group =>   3
Atom   6C    basis set group =>   2
Atom   7C    basis set group =>   2
Atom   8C    basis set group =>   2
Atom   9H    basis set group =>   4
Atom  10H    basis set group =>   4
Atom  11H    basis set group =>   4
-------------------------------
AUXILIARY BASIS SET INFORMATION
-------------------------------
There are 4 groups of distinct atoms

 Group   1 Type O   : 14s10p6d2f1g contracted to 10s8p4d2f1g pattern {5111111111/31111111/3111/11/1}
 Group   2 Type C   : 14s10p6d2f1g contracted to 10s8p5d1f1g pattern {5111111111/31111111/21111/2/1}
 Group   3 Type N   : 14s10p6d2f1g contracted to 10s8p4d2f1g pattern {5111111111/31111111/3111/11/1}
 Group   4 Type H   : 4s2p2d contracted to 2s2p2d pattern {31/11/11}

Atom   0O    basis set group =>   1
Atom   1C    basis set group =>   2
Atom   2N    basis set group =>   3
Atom   3N    basis set group =>   3
Atom   4C    basis set group =>   2
Atom   5N    basis set group =>   3
Atom   6C    basis set group =>   2
Atom   7C    basis set group =>   2
Atom   8C    basis set group =>   2
Atom   9H    basis set group =>   4
Atom  10H    basis set group =>   4
Atom  11H    basis set group =>   4
------------------------------------------------------------------------------
                           ORCA GTO INTEGRAL CALCULATION
                           -- RI-GTO INTEGRALS CHOSEN --
------------------------------------------------------------------------------

                         BASIS SET STATISTICS AND STARTUP INFO

Gaussian basis set:
 # of primitive gaussian shells          ...  198
 # of primitive gaussian functions       ...  438
 # of contracted shells                  ...  111
 # of contracted basis functions         ...  297
 Highest angular momentum                ...    3
 Maximum contraction depth               ...    6
Auxiliary gaussian basis set:
 # of primitive gaussian shells          ...  321
 # of primitive gaussian functions       ...  933
 # of contracted shells                  ...  243
 # of contracted aux-basis functions     ...  737
 Highest angular momentum                ...    4
 Maximum contraction depth               ...    5
Ratio of auxiliary to basis functions    ...  2.48
Integral package used                  ... LIBINT
 One Electron integrals                  ... done
 Ordering auxiliary basis shells         ... done
 Integral threshhold             Thresh  ...  2.500e-11
 Primitive cut-off               TCut    ...  2.500e-12
 Pre-screening matrix                    ... done
 Shell pair data                         ... 
 Ordering of the shell pairs             ... done (   0.001 sec) 5566 of 6216 pairs
 Determination of significant pairs      ... done (   0.000 sec)
 Creation of shell pair data             ... done (   0.001 sec)
 Storage of shell pair data              ... done (   0.001 sec)
 Shell pair data done in (   0.004 sec)
 Computing two index integrals           ... done
 Cholesky decomposition of the V-matrix  ... done


Timings:
 Total evaluation time                   ...   0.354 sec (  0.006 min)
 One electron matrix time                ...   0.058 sec (  0.001 min) = 16.3%
 Schwartz matrix evaluation time         ...   0.219 sec (  0.004 min) = 61.9%
 Two index repulsion integral time       ...   0.018 sec (  0.000 min) =  5.0%
 Cholesky decomposition of V             ...   0.025 sec (  0.000 min) =  7.1%
 Three index repulsion integral time     ...   0.000 sec (  0.000 min) =  0.0%

-------------------------------------------------------------------------------
                                 ORCA SCF
-------------------------------------------------------------------------------

------------
SCF SETTINGS
------------
Hamiltonian:
 Ab initio Hamiltonian  Method          .... Hartree-Fock(GTOs)
 RI-approximation to the Coulomb term is turned on
   Number of auxiliary basis functions  .... 737
   RI-JK (J+K treated both via RI)      .... on


General Settings:
 Integral files         IntName         .... dsgdb9nsd_130706
 Hartree-Fock type      HFTyp           .... RHF
 Total Charge           Charge          ....    0
 Multiplicity           Mult            ....    1
 Number of Electrons    NEL             ....   62
 Basis Dimension        Dim             ....  297
 Nuclear Repulsion      ENuc            ....    387.1751183600 Eh

Convergence Acceleration:
 DIIS                   CNVDIIS         .... on
   Start iteration      DIISMaxIt       ....    12
   Startup error        DIISStart       ....  0.200000
   # of expansion vecs  DIISMaxEq       ....     5
   Bias factor          DIISBfac        ....   1.050
   Max. coefficient     DIISMaxC        ....  10.000
 Newton-Raphson         CNVNR           .... off
 SOSCF                  CNVSOSCF        .... on
   Start iteration      SOSCFMaxIt      ....   150
   Startup grad/error   SOSCFStart      ....  0.003300
 Level Shifting         CNVShift        .... on
   Level shift para.    LevelShift      ....    0.2500
   Turn off err/grad.   ShiftErr        ....    0.0010
 Zerner damping         CNVZerner       .... off
 Static damping         CNVDamp         .... on
   Fraction old density DampFac         ....    0.7000
   Max. Damping (<1)    DampMax         ....    0.9800
   Min. Damping (>=0)   DampMin         ....    0.0000
   Turn off err/grad.   DampErr         ....    0.1000
 Fernandez-Rico         CNVRico         .... off

SCF Procedure:
 Maximum # iterations   MaxIter         ....   125
 SCF integral mode      SCFMode         .... Direct
   Integral package                     .... LIBINT
 Reset frequeny         DirectResetFreq ....    20
 Integral Threshold     Thresh          ....  2.500e-11 Eh
 Primitive CutOff       TCut            ....  2.500e-12 Eh

Convergence Tolerance:
 Convergence Check Mode ConvCheckMode   .... Total+1el-Energy
 Energy Change          TolE            ....  1.000e-08 Eh
 1-El. energy change                    ....  1.000e-05 Eh
 Orbital Gradient       TolG            ....  1.000e-05
 Orbital Rotation angle TolX            ....  1.000e-05
 DIIS Error             TolErr          ....  5.000e-07


Diagonalization of the overlap matrix:
Smallest eigenvalue                        ... 1.428e-05
Time for diagonalization                   ...    0.028 sec
Threshold for overlap eigenvalues          ... 1.000e-08
Number of eigenvalues below threshold      ... 0
Time for construction of square roots      ...    0.013 sec
Total time needed                          ...    0.041 sec

-------------------
DFT GRID GENERATION
-------------------

General Integration Accuracy     IntAcc      ...  4.340
Radial Grid Type                 RadialGrid  ... Gauss-Chebyshev
Angular Grid (max. acc.)         AngularGrid ... Lebedev-110
Angular grid pruning method      GridPruning ... 3 (G Style)
Weight generation scheme         WeightScheme... Becke
Basis function cutoff            BFCut       ...    1.0000e-11
Integration weight cutoff        WCut        ...    1.0000e-14
Grids for H and He will be reduced by one unit

# of grid points (after initial pruning)     ...  17484 (   0.0 sec)
# of grid points (after weights+screening)   ...  16515 (   0.0 sec)
nearest neighbour list constructed           ...    0.0 sec
Grid point re-assignment to atoms done       ...    0.0 sec
Grid point division into batches done        ...    0.0 sec
Reduced shell lists constructed in    1.0 sec

Total number of grid points                  ...    16515
Total number of batches                      ...      265
Average number of points per batch           ...       62
Average number of grid points per atom       ...     1376
Average number of shells per batch           ...    72.85 (65.63%)
Average number of basis functions per batch  ...   202.12 (68.06%)
Average number of large shells per batch     ...    57.20 (78.53%)
Average number of large basis fcns per batch ...   156.97 (77.66%)
Average number of aux-shells per batch       ...    72.85 (29.98%)
Average number of aux functions per batch    ...   202.12 (  inf%)
Maximum spatial batch extension              ...  20.95, 18.96, 25.60 au
Average spatial batch extension              ...   4.33,  3.52,  5.32 au

Time for grid setup =    1.012 sec

------------------------------
INITIAL GUESS: MODEL POTENTIAL
------------------------------
Loading Hartree-Fock densities                     ... done
Calculating cut-offs                               ... done
Setting up the integral package                    ... done
Initializing the effective Hamiltonian             ... done
Starting the Coulomb interaction                   ... done (   0.4 sec)
Reading the grid                                   ... done
Mapping shells                                     ... done
Starting the XC term evaluation                    ... done (   0.5 sec)
Transforming the Hamiltonian                       ... done (   0.0 sec)
Diagonalizing the Hamiltonian                      ... done (   0.0 sec)
Back transforming the eigenvectors                 ... done (   0.0 sec)
Now organizing SCF variables                       ... done
                      ------------------
                      INITIAL GUESS DONE (   2.1 sec)
                      ------------------
--------------
SCF ITERATIONS
--------------
ITER       Energy         Delta-E        Max-DP      RMS-DP      [F,P]     Damp
  0   -429.0102222826   0.000000000000 0.07100855  0.00126306  0.3022675 0.7000
  1   -428.8924504322   0.117771850466 0.04884428  0.00119836  0.2934476 0.7000
                               ***Turning on DIIS***
  2   -428.9264537522  -0.034003320040 0.03071358  0.00085125  0.1897241 0.7000
  3   -429.6156151670  -0.689161414788 0.02752594  0.00050550  0.1361110 0.7000
  4   -429.3061782489   0.309436918159 0.06550109  0.00125625  0.0867367 0.0000
  5   -429.3329527488  -0.026774499931 0.01424883  0.00028379  0.0558918 0.0000
  6   -429.3022363016   0.030716447138 0.00970579  0.00013613  0.0067393 0.0000
  7   -429.3118725989  -0.009636297207 0.00243149  0.00006099  0.0048696 0.0000
  8   -429.3276648813  -0.015792282428 0.00187620  0.00003719  0.0038468 0.0000
                      *** Initiating the SOSCF procedure ***
                           *** Shutting down DIIS ***
                      *** Re-Reading the Fockian *** 
                      *** Removing any level shift *** 
ITER      Energy       Delta-E        Grad      Rot      Max-DP    RMS-DP
  9   -429.34357609  -0.0159112101  0.000650  0.000650  0.000580  0.000013
 10   -429.34742965  -0.0038535563  0.000373  0.000950  0.000298  0.000009
 11   -429.34743385  -0.0000042039  0.000218  0.001623  0.000483  0.000017
 12   -429.34743631  -0.0000024628  0.000098  0.000088  0.000135  0.000003
 13   -429.34743651  -0.0000002005  0.000051  0.000055  0.000052  0.000001
 14   -429.34743655  -0.0000000371  0.000010  0.000024  0.000025  0.000001
 15   -429.34743656  -0.0000000070  0.000006  0.000029  0.000020  0.000000
 16   -429.34743656  -0.0000000019  0.000003  0.000004  0.000005  0.000000
                  ***Gradient check signals convergence***
              ***Rediagonalizing the Fockian in SOSCF/NRSCF***

               *****************************************************
               *                     SUCCESS                       *
               *           SCF CONVERGED AFTER  17 CYCLES          *
               *****************************************************


----------------
TOTAL SCF ENERGY
----------------

Total Energy       :         -429.34743656 Eh          -11683.13771 eV

Components:
Nuclear Repulsion  :          387.17511836 Eh           10535.57059 eV
Electronic Energy  :         -816.52255492 Eh          -22218.70830 eV

One Electron Energy:        -1350.69367962 Eh          -36754.24357 eV
Two Electron Energy:          534.17112470 Eh           14535.53528 eV

Virial components:
Potential Energy   :         -858.00737689 Eh          -23347.56769 eV
Kinetic Energy     :          428.65994033 Eh           11664.42998 eV
Virial Ratio       :            2.00160383


---------------
SCF CONVERGENCE
---------------

  Last Energy change         ...   -2.8547e-10  Tolerance :   1.0000e-08
  Last MAX-Density change    ...    2.4140e-06  Tolerance :   1.0000e-07
  Last RMS-Density change    ...    6.6538e-08  Tolerance :   5.0000e-09
  Last Orbital Gradient      ...    1.5998e-06  Tolerance :   1.0000e-05
  Last Orbital Rotation      ...    2.9800e-06  Tolerance :   1.0000e-05

             **** THE GBW FILE WAS UPDATED (dsgdb9nsd_130706.gbw) ****
             **** DENSITY FILE WAS UPDATED (dsgdb9nsd_130706.scfp.tmp) ****
             **** ENERGY FILE WAS UPDATED (dsgdb9nsd_130706.en.tmp) ****
----------------
ORBITAL ENERGIES
----------------

  NO   OCC          E(Eh)            E(eV) 
   0   2.0000     -20.552524      -559.2626 
   1   2.0000     -15.673270      -426.4914 
   2   2.0000     -15.660012      -426.1306 
   3   2.0000     -15.628392      -425.2702 
   4   2.0000     -11.390276      -309.9452 
   5   2.0000     -11.355751      -309.0057 
   6   2.0000     -11.333011      -308.3869 
   7   2.0000     -11.257757      -306.3392 
   8   2.0000     -11.253481      -306.2228 
   9   2.0000      -1.439103       -39.1600 
  10   2.0000      -1.385533       -37.7023 
  11   2.0000      -1.285549       -34.9816 
  12   2.0000      -1.164387       -31.6846 
  13   2.0000      -1.052332       -28.6354 
  14   2.0000      -0.977342       -26.5948 
  15   2.0000      -0.940601       -25.5950 
  16   2.0000      -0.831688       -22.6314 
  17   2.0000      -0.789839       -21.4926 
  18   2.0000      -0.736190       -20.0328 
  19   2.0000      -0.686895       -18.6914 
  20   2.0000      -0.669096       -18.2070 
  21   2.0000      -0.668128       -18.1807 
  22   2.0000      -0.649214       -17.6660 
  23   2.0000      -0.558889       -15.2081 
  24   2.0000      -0.556835       -15.1523 
  25   2.0000      -0.517542       -14.0830 
  26   2.0000      -0.512863       -13.9557 
  27   2.0000      -0.443426       -12.0662 
  28   2.0000      -0.433369       -11.7926 
  29   2.0000      -0.421692       -11.4748 
  30   2.0000      -0.350715        -9.5434 
  31   0.0000       0.035376         0.9626 
  32   0.0000       0.088966         2.4209 
  33   0.0000       0.134358         3.6561 
  34   0.0000       0.155431         4.2295 
  35   0.0000       0.163595         4.4516 
  36   0.0000       0.172937         4.7059 
  37   0.0000       0.185034         5.0350 
  38   0.0000       0.211405         5.7526 
  39   0.0000       0.215641         5.8679 
  40   0.0000       0.235126         6.3981 
  41   0.0000       0.280995         7.6463 
  42   0.0000       0.281781         7.6677 
  43   0.0000       0.303749         8.2654 
  44   0.0000       0.325778         8.8649 
  45   0.0000       0.339900         9.2491 
  46   0.0000       0.341885         9.3032 
  47   0.0000       0.356439         9.6992 
  48   0.0000       0.366397         9.9702 
  49   0.0000       0.384718        10.4687 
  50   0.0000       0.389342        10.5945 
  51   0.0000       0.416292        11.3279 
  52   0.0000       0.431420        11.7395 
  53   0.0000       0.444291        12.0898 
  54   0.0000       0.464620        12.6430 
  55   0.0000       0.476284        12.9603 
  56   0.0000       0.488045        13.2804 
  57   0.0000       0.500724        13.6254 
  58   0.0000       0.511081        13.9072 
  59   0.0000       0.520245        14.1566 
  60   0.0000       0.522928        14.2296 
  61   0.0000       0.542487        14.7618 
  62   0.0000       0.544101        14.8057 
  63   0.0000       0.558462        15.1965 
  64   0.0000       0.566542        15.4164 
  65   0.0000       0.594321        16.1723 
  66   0.0000       0.600636        16.3441 
  67   0.0000       0.623562        16.9680 
  68   0.0000       0.654855        17.8195 
  69   0.0000       0.661548        18.0016 
  70   0.0000       0.664622        18.0853 
  71   0.0000       0.682867        18.5818 
  72   0.0000       0.695036        18.9129 
  73   0.0000       0.716299        19.4915 
  74   0.0000       0.730598        19.8806 
  75   0.0000       0.743919        20.2431 
  76   0.0000       0.750793        20.4301 
  77   0.0000       0.751655        20.4536 
  78   0.0000       0.762089        20.7375 
  79   0.0000       0.809466        22.0267 
  80   0.0000       0.844751        22.9868 
  81   0.0000       0.849509        23.1163 
  82   0.0000       0.853307        23.2197 
  83   0.0000       0.863779        23.5046 
  84   0.0000       0.864604        23.5271 
  85   0.0000       0.892155        24.2768 
  86   0.0000       0.931007        25.3340 
  87   0.0000       0.969231        26.3741 
  88   0.0000       0.978565        26.6281 
  89   0.0000       0.995328        27.0843 
  90   0.0000       1.007328        27.4108 
  91   0.0000       1.046797        28.4848 
  92   0.0000       1.072385        29.1811 
  93   0.0000       1.082130        29.4463 
  94   0.0000       1.138964        30.9928 
  95   0.0000       1.142552        31.0904 
  96   0.0000       1.161227        31.5986 
  97   0.0000       1.166686        31.7471 
  98   0.0000       1.203196        32.7406 
  99   0.0000       1.211850        32.9761 
 100   0.0000       1.227340        33.3976 
 101   0.0000       1.256699        34.1965 
 102   0.0000       1.278323        34.7849 
 103   0.0000       1.354004        36.8443 
 104   0.0000       1.404642        38.2223 
 105   0.0000       1.445597        39.3367 
 106   0.0000       1.452880        39.5349 
 107   0.0000       1.484795        40.4033 
 108   0.0000       1.525834        41.5201 
 109   0.0000       1.533600        41.7314 
 110   0.0000       1.558592        42.4114 
 111   0.0000       1.565496        42.5993 
 112   0.0000       1.583734        43.0956 
 113   0.0000       1.620452        44.0947 
 114   0.0000       1.621527        44.1240 
 115   0.0000       1.664744        45.3000 
 116   0.0000       1.682197        45.7749 
 117   0.0000       1.698061        46.2066 
 118   0.0000       1.712853        46.6091 
 119   0.0000       1.728647        47.0389 
 120   0.0000       1.753320        47.7103 
 121   0.0000       1.781517        48.4775 
 122   0.0000       1.793077        48.7921 
 123   0.0000       1.814754        49.3820 
 124   0.0000       1.822361        49.5890 
 125   0.0000       1.826706        49.7072 
 126   0.0000       1.853711        50.4420 
 127   0.0000       1.866054        50.7779 
 128   0.0000       1.902569        51.7715 
 129   0.0000       1.907206        51.8977 
 130   0.0000       1.952023        53.1173 
 131   0.0000       1.976534        53.7842 
 132   0.0000       1.977239        53.8034 
 133   0.0000       2.007154        54.6174 
 134   0.0000       2.014477        54.8167 
 135   0.0000       2.024918        55.1008 
 136   0.0000       2.063818        56.1593 
 137   0.0000       2.136240        58.1300 
 138   0.0000       2.171446        59.0881 
 139   0.0000       2.194705        59.7210 
 140   0.0000       2.201365        59.9022 
 141   0.0000       2.218896        60.3792 
 142   0.0000       2.246181        61.1217 
 143   0.0000       2.273231        61.8578 
 144   0.0000       2.276522        61.9473 
 145   0.0000       2.319171        63.1078 
 146   0.0000       2.339613        63.6641 
 147   0.0000       2.383695        64.8636 
 148   0.0000       2.395545        65.1861 
 149   0.0000       2.501576        68.0713 
 150   0.0000       2.506641        68.2092 
 151   0.0000       2.557140        69.5833 
 152   0.0000       2.558019        69.6072 
 153   0.0000       2.563042        69.7439 
 154   0.0000       2.600769        70.7705 
 155   0.0000       2.626288        71.4649 
 156   0.0000       2.674446        72.7754 
 157   0.0000       2.706060        73.6356 
 158   0.0000       2.726161        74.1826 
 159   0.0000       2.767334        75.3030 
 160   0.0000       2.769693        75.3672 
 161   0.0000       2.796687        76.1017 
 162   0.0000       2.812845        76.5414 
 163   0.0000       2.817454        76.6668 
 164   0.0000       2.852345        77.6162 
 165   0.0000       2.863042        77.9073 
 166   0.0000       2.925174        79.5980 
 167   0.0000       2.937915        79.9447 
 168   0.0000       2.948080        80.2213 
 169   0.0000       3.015543        82.0571 
 170   0.0000       3.019569        82.1667 
 171   0.0000       3.052269        83.0564 
 172   0.0000       3.068260        83.4916 
 173   0.0000       3.097673        84.2920 
 174   0.0000       3.100668        84.3735 
 175   0.0000       3.140373        85.4539 
 176   0.0000       3.170072        86.2621 
 177   0.0000       3.184927        86.6663 
 178   0.0000       3.196034        86.9685 
 179   0.0000       3.201049        87.1050 
 180   0.0000       3.205435        87.2243 
 181   0.0000       3.213631        87.4473 
 182   0.0000       3.223130        87.7058 
 183   0.0000       3.230529        87.9072 
 184   0.0000       3.240468        88.1776 
 185   0.0000       3.265942        88.8708 
 186   0.0000       3.316924        90.2581 
 187   0.0000       3.322812        90.4183 
 188   0.0000       3.327602        90.5487 
 189   0.0000       3.350689        91.1769 
 190   0.0000       3.355931        91.3195 
 191   0.0000       3.384138        92.0871 
 192   0.0000       3.399393        92.5022 
 193   0.0000       3.431205        93.3678 
 194   0.0000       3.432674        93.4078 
 195   0.0000       3.435707        93.4903 
 196   0.0000       3.488613        94.9300 
 197   0.0000       3.493972        95.0758 
 198   0.0000       3.531583        96.0993 
 199   0.0000       3.544529        96.4515 
 200   0.0000       3.551731        96.6475 
 201   0.0000       3.558458        96.8306 
 202   0.0000       3.613012        98.3151 
 203   0.0000       3.624082        98.6163 
 204   0.0000       3.628916        98.7478 
 205   0.0000       3.644290        99.1662 
 206   0.0000       3.667424        99.7957 
 207   0.0000       3.684145       100.2507 
 208   0.0000       3.689839       100.4056 
 209   0.0000       3.749244       102.0221 
 210   0.0000       3.761386       102.3525 
 211   0.0000       3.798580       103.3646 
 212   0.0000       3.805942       103.5649 
 213   0.0000       3.860130       105.0395 
 214   0.0000       3.907025       106.3156 
 215   0.0000       3.917142       106.5909 
 216   0.0000       3.981224       108.3346 
 217   0.0000       4.018271       109.3427 
 218   0.0000       4.032075       109.7183 
 219   0.0000       4.106200       111.7354 
 220   0.0000       4.145643       112.8087 
 221   0.0000       4.160435       113.2112 
 222   0.0000       4.198248       114.2401 
 223   0.0000       4.272916       116.2720 
 224   0.0000       4.282961       116.5453 
 225   0.0000       4.297867       116.9509 
 226   0.0000       4.345215       118.2393 
 227   0.0000       4.365962       118.8039 
 228   0.0000       4.432688       120.6196 
 229   0.0000       4.442752       120.8934 
 230   0.0000       4.488556       122.1398 
 231   0.0000       4.560182       124.0889 
 232   0.0000       4.599071       125.1471 
 233   0.0000       4.631997       126.0431 
 234   0.0000       4.672886       127.1557 
 235   0.0000       4.758127       129.4752 
 236   0.0000       4.787893       130.2852 
 237   0.0000       4.902594       133.4064 
 238   0.0000       4.954852       134.8284 
 239   0.0000       4.975402       135.3876 
 240   0.0000       5.031974       136.9270 
 241   0.0000       5.033344       136.9642 
 242   0.0000       5.036626       137.0536 
 243   0.0000       5.086319       138.4058 
 244   0.0000       5.129401       139.5781 
 245   0.0000       5.200293       141.5072 
 246   0.0000       5.221024       142.0713 
 247   0.0000       5.253714       142.9608 
 248   0.0000       5.294880       144.0810 
 249   0.0000       5.309048       144.4665 
 250   0.0000       5.323442       144.8582 
 251   0.0000       5.354284       145.6975 
 252   0.0000       5.366166       146.0208 
 253   0.0000       5.396740       146.8528 
 254   0.0000       5.407873       147.1557 
 255   0.0000       5.446121       148.1965 
 256   0.0000       5.509330       149.9165 
 257   0.0000       5.558294       151.2489 
 258   0.0000       5.572747       151.6422 
 259   0.0000       5.576486       151.7439 
 260   0.0000       5.611540       152.6978 
 261   0.0000       5.632353       153.2641 
 262   0.0000       5.633597       153.2980 
 263   0.0000       5.715944       155.5388 
 264   0.0000       5.773679       157.1098 
 265   0.0000       5.790972       157.5804 
 266   0.0000       5.821517       158.4115 
 267   0.0000       5.837438       158.8448 
 268   0.0000       5.949349       161.8900 
 269   0.0000       6.008077       163.4881 
 270   0.0000       6.033738       164.1864 
 271   0.0000       6.038663       164.3204 
 272   0.0000       6.085262       165.5884 
 273   0.0000       6.150615       167.3667 
 274   0.0000       6.254115       170.1831 
 275   0.0000       6.311317       171.7397 
 276   0.0000       6.393264       173.9696 
 277   0.0000       6.499668       176.8650 
 278   0.0000       6.624245       180.2549 
 279   0.0000       6.722366       182.9249 
 280   0.0000       6.898116       187.7073 
 281   0.0000       6.926184       188.4710 
 282   0.0000       7.079179       192.6343 
 283   0.0000       7.315453       199.0636 
 284   0.0000       7.335486       199.6087 
 285   0.0000       7.462071       203.0533 
 286   0.0000       7.583256       206.3509 
 287   0.0000       7.649420       208.1513 
 288   0.0000      23.664643       643.9477 
 289   0.0000      23.769103       646.7902 
 290   0.0000      24.271663       660.4655 
 291   0.0000      24.402633       664.0294 
 292   0.0000      24.785911       674.4589 
 293   0.0000      33.528202       912.3488 
 294   0.0000      33.555599       913.0943 
 295   0.0000      33.848383       921.0613 
 296   0.0000      45.496508      1238.0229 

                    ********************************
                    * MULLIKEN POPULATION ANALYSIS *
                    ********************************

-----------------------
MULLIKEN ATOMIC CHARGES
-----------------------
   0 O :   -0.483670
   1 C :    0.430380
   2 N :   -0.214111
   3 N :   -0.169767
   4 C :    0.029936
   5 N :   -0.294804
   6 C :    0.010355
   7 C :    0.031843
   8 C :    0.000810
   9 H :    0.279921
  10 H :    0.167053
  11 H :    0.212054
Sum of atomic charges:    0.0000000

--------------------------------
MULLIKEN REDUCED ORBITAL CHARGES
--------------------------------
  0 O s       :     3.842251  s :     3.842251
      pz      :     1.473773  p :     4.602249
      px      :     1.808511
      py      :     1.319966
      dz2     :     0.003596  d :     0.036979
      dxz     :     0.000008
      dyz     :     0.012658
      dx2y2   :     0.012442
      dxy     :     0.008275
      f0      :     0.000217  f :     0.002191
      f+1     :     0.000020
      f-1     :     0.000280
      f+2     :     0.000489
      f-2     :     0.000007
      f+3     :     0.000537
      f-3     :     0.000641
  1 C s       :     2.985115  s :     2.985115
      pz      :     0.697951  p :     2.285727
      px      :     0.819320
      py      :     0.768456
      dz2     :     0.007828  d :     0.275735
      dxz     :     0.018053
      dyz     :     0.082007
      dx2y2   :     0.034882
      dxy     :     0.132966
      f0      :     0.003167  f :     0.023043
      f+1     :     0.001222
      f-1     :     0.001470
      f+2     :     0.003390
      f-2     :     0.001662
      f+3     :     0.008134
      f-3     :     0.003997
  2 N s       :     3.415785  s :     3.415785
      pz      :     1.597323  p :     3.705703
      px      :     1.149475
      py      :     0.958905
      dz2     :     0.005227  d :     0.085975
      dxz     :     0.004096
      dyz     :     0.015102
      dx2y2   :     0.025854
      dxy     :     0.035697
      f0      :     0.000974  f :     0.006648
      f+1     :     0.000815
      f-1     :     0.001191
      f+2     :     0.000550
      f-2     :     0.000173
      f+3     :     0.001352
      f-3     :     0.001593
  3 N s       :     3.617225  s :     3.617225
      pz      :     1.079275  p :     3.452120
      px      :     1.455979
      py      :     0.916866
      dz2     :     0.007974  d :     0.093847
      dxz     :     0.015333
      dyz     :     0.023045
      dx2y2   :     0.026438
      dxy     :     0.021058
      f0      :     0.000939  f :     0.006574
      f+1     :     0.000344
      f-1     :     0.000869
      f+2     :     0.001052
      f-2     :     0.000588
      f+3     :     0.001184
      f-3     :     0.001600
  4 C s       :     3.247616  s :     3.247616
      pz      :     0.943587  p :     2.520163
      px      :     0.743822
      py      :     0.832754
      dz2     :     0.000928  d :     0.185216
      dxz     :     0.036869
      dyz     :     0.028213
      dx2y2   :     0.068938
      dxy     :     0.050269
      f0      :     0.002617  f :     0.017069
      f+1     :     0.001417
      f-1     :     0.001325
      f+2     :     0.001049
      f-2     :     0.001730
      f+3     :     0.005605
      f-3     :     0.003326
  5 N s       :     3.623844  s :     3.623844
      pz      :     1.046047  p :     3.591731
      px      :     1.359961
      py      :     1.185723
      dz2     :     0.007686  d :     0.074856
      dxz     :     0.008068
      dyz     :     0.016566
      dx2y2   :     0.025020
      dxy     :     0.017516
      f0      :     0.000661  f :     0.004373
      f+1     :     0.000375
      f-1     :     0.000402
      f+2     :     0.000635
      f-2     :     0.000199
      f+3     :     0.000918
      f-3     :     0.001183
  6 C s       :     3.190835  s :     3.190835
      pz      :     0.833671  p :     2.668447
      px      :     0.990010
      py      :     0.844766
      dz2     :     0.003755  d :     0.118558
      dxz     :     0.005388
      dyz     :     0.029021
      dx2y2   :     0.024099
      dxy     :     0.056295
      f0      :     0.001967  f :     0.011805
      f+1     :     0.000898
      f-1     :     0.001147
      f+2     :     0.001343
      f-2     :     0.000311
      f+3     :     0.003309
      f-3     :     0.002830
  7 C s       :     3.314691  s :     3.314691
      pz      :     0.977920  p :     2.535622
      px      :     0.968153
      py      :     0.589549
      dz2     :     0.008220  d :     0.104747
      dxz     :     0.000011
      dyz     :     0.038558
      dx2y2   :     0.030861
      dxy     :     0.027097
      f0      :     0.001919  f :     0.013098
      f+1     :     0.000298
      f-1     :     0.001131
      f+2     :     0.003166
      f-2     :     0.000030
      f+3     :     0.004560
      f-3     :     0.001995
  8 C s       :     2.987283  s :     2.987283
      pz      :     0.957075  p :     2.990830
      px      :     0.964482
      py      :     1.069273
      dz2     :    -0.003045  d :     0.012634
      dxz     :     0.000008
      dyz     :     0.012208
      dx2y2   :    -0.009406
      dxy     :     0.012869
      f0      :     0.001010  f :     0.008443
      f+1     :     0.000176
      f-1     :     0.001049
      f+2     :     0.001715
      f-2     :     0.000003
      f+3     :     0.002742
      f-3     :     0.001749
  9 H s       :     0.683066  s :     0.683066
      pz      :     0.010118  p :     0.037013
      px      :     0.018271
      py      :     0.008624
 10 H s       :     0.809804  s :     0.809804
      pz      :     0.003140  p :     0.023142
      px      :     0.014728
      py      :     0.005274
 11 H s       :     0.763549  s :     0.763549
      pz      :     0.003418  p :     0.024396
      px      :     0.003298
      py      :     0.017681


                     *******************************
                     * LOEWDIN POPULATION ANALYSIS *
                     *******************************

----------------------
LOEWDIN ATOMIC CHARGES
----------------------
   0 O :    0.024743
   1 C :   -0.380851
   2 N :    0.113658
   3 N :    0.103803
   4 C :   -0.290158
   5 N :    0.164904
   6 C :   -0.100847
   7 C :   -0.070475
   8 C :   -0.045371
   9 H :    0.200419
  10 H :    0.150002
  11 H :    0.130173

-------------------------------
LOEWDIN REDUCED ORBITAL CHARGES
-------------------------------
  0 O s       :     3.404891  s :     3.404891
      pz      :     1.379231  p :     4.497680
      px      :     1.646238
      py      :     1.472211
      dz2     :     0.008249  d :     0.067040
      dxz     :     0.000034
      dyz     :     0.014518
      dx2y2   :     0.026966
      dxy     :     0.017272
      f0      :     0.000403  f :     0.005646
      f+1     :     0.000099
      f-1     :     0.000961
      f+2     :     0.000726
      f-2     :     0.000020
      f+3     :     0.001591
      f-3     :     0.001846
  1 C s       :     2.736493  s :     2.736493
      pz      :     0.695489  p :     2.610457
      px      :     0.945282
      py      :     0.969685
      dz2     :     0.056882  d :     0.901918
      dxz     :     0.069023
      dyz     :     0.201590
      dx2y2   :     0.207770
      dxy     :     0.366653
      f0      :     0.009747  f :     0.131982
      f+1     :     0.005944
      f-1     :     0.010432
      f+2     :     0.021751
      f-2     :     0.010413
      f+3     :     0.051661
      f-3     :     0.022035
  2 N s       :     2.934394  s :     2.934394
      pz      :     1.412980  p :     3.645021
      px      :     1.153041
      py      :     1.079000
      dz2     :     0.019081  d :     0.285176
      dxz     :     0.010316
      dyz     :     0.046152
      dx2y2   :     0.084119
      dxy     :     0.125508
      f0      :     0.001720  f :     0.021751
      f+1     :     0.001611
      f-1     :     0.002970
      f+2     :     0.003088
      f-2     :     0.000751
      f+3     :     0.007968
      f-3     :     0.003645
  3 N s       :     3.085554  s :     3.085554
      pz      :     1.010242  p :     3.500817
      px      :     1.443820
      py      :     1.046754
      dz2     :     0.023770  d :     0.282708
      dxz     :     0.021825
      dyz     :     0.076956
      dx2y2   :     0.093198
      dxy     :     0.066959
      f0      :     0.002148  f :     0.027118
      f+1     :     0.001088
      f-1     :     0.002876
      f+2     :     0.005672
      f-2     :     0.001716
      f+3     :     0.007620
      f-3     :     0.006000
  4 C s       :     2.710403  s :     2.710403
      pz      :     0.854945  p :     2.771350
      px      :     0.957771
      py      :     0.958634
      dz2     :     0.047545  d :     0.712021
      dxz     :     0.102166
      dyz     :     0.078976
      dx2y2   :     0.285216
      dxy     :     0.198118
      f0      :     0.006142  f :     0.096384
      f+1     :     0.008107
      f-1     :     0.005310
      f+2     :     0.007546
      f-2     :     0.011519
      f+3     :     0.041216
      f-3     :     0.016544
  5 N s       :     3.048410  s :     3.048410
      pz      :     0.961949  p :     3.553834
      px      :     1.323802
      py      :     1.268084
      dz2     :     0.018627  d :     0.215135
      dxz     :     0.021039
      dyz     :     0.035931
      dx2y2   :     0.070317
      dxy     :     0.069220
      f0      :     0.001185  f :     0.017717
      f+1     :     0.001038
      f-1     :     0.001672
      f+2     :     0.002893
      f-2     :     0.000766
      f+3     :     0.006256
      f-3     :     0.003907
  6 C s       :     2.793169  s :     2.793169
      pz      :     0.773093  p :     2.776934
      px      :     1.002980
      py      :     1.000860
      dz2     :     0.034422  d :     0.470895
      dxz     :     0.015364
      dyz     :     0.069139
      dx2y2   :     0.131941
      dxy     :     0.220029
      f0      :     0.004384  f :     0.059849
      f+1     :     0.003317
      f-1     :     0.006308
      f+2     :     0.006956
      f-2     :     0.002355
      f+3     :     0.023882
      f-3     :     0.012648
  7 C s       :     2.789445  s :     2.789445
      pz      :     0.892660  p :     2.911338
      px      :     0.877956
      py      :     1.140721
      dz2     :     0.025799  d :     0.322823
      dxz     :     0.000353
      dyz     :     0.118486
      dx2y2   :     0.075467
      dxy     :     0.102718
      f0      :     0.004905  f :     0.046868
      f+1     :     0.000780
      f-1     :     0.007703
      f+2     :     0.008075
      f-2     :     0.000064
      f+3     :     0.011721
      f-3     :     0.013620
  8 C s       :     2.885141  s :     2.885141
      pz      :     0.920245  p :     2.976665
      px      :     0.922319
      py      :     1.134100
      dz2     :     0.016136  d :     0.147303
      dxz     :     0.000015
      dyz     :     0.041234
      dx2y2   :     0.048693
      dxy     :     0.041224
      f0      :     0.003521  f :     0.036263
      f+1     :     0.000604
      f-1     :     0.006403
      f+2     :     0.005896
      f-2     :     0.000007
      f+3     :     0.009150
      f-3     :     0.010682
  9 H s       :     0.693941  s :     0.693941
      pz      :     0.030387  p :     0.105641
      px      :     0.051401
      py      :     0.023852
 10 H s       :     0.790706  s :     0.790706
      pz      :     0.009532  p :     0.059292
      px      :     0.035967
      py      :     0.013793
 11 H s       :     0.799668  s :     0.799668
      pz      :     0.012200  p :     0.070159
      px      :     0.011909
      py      :     0.046050


                      *****************************
                      * MAYER POPULATION ANALYSIS *
                      *****************************

  NA   - Mulliken gross atomic population
  ZA   - Total nuclear charge
  QA   - Mulliken gross atomic charge
  VA   - Mayer's total valence
  BVA  - Mayer's bonded valence
  FA   - Mayer's free valence

  ATOM       NA         ZA         QA         VA         BVA        FA
  0 O      8.4837     8.0000    -0.4837     2.0058     2.0058    -0.0000
  1 C      5.5696     6.0000     0.4304     4.2247     4.2247    -0.0000
  2 N      7.2141     7.0000    -0.2141     3.1441     3.1441     0.0000
  3 N      7.1698     7.0000    -0.1698     2.8594     2.8594     0.0000
  4 C      5.9701     6.0000     0.0299     4.1096     4.1096     0.0000
  5 N      7.2948     7.0000    -0.2948     2.9507     2.9507    -0.0000
  6 C      5.9896     6.0000     0.0104     3.8727     3.8727    -0.0000
  7 C      5.9682     6.0000     0.0318     4.0163     4.0163    -0.0000
  8 C      5.9992     6.0000     0.0008     3.5476     3.5476     0.0000
  9 H      0.7201     1.0000     0.2799     0.9297     0.9297    -0.0000
 10 H      0.8329     1.0000     0.1671     0.9720     0.9720    -0.0000
 11 H      0.7879     1.0000     0.2121     0.9624     0.9624     0.0000

  Mayer bond orders larger than 0.1
B(  0-O ,  1-C ) :   1.9429 B(  1-C ,  2-N ) :   1.1760 B(  1-C ,  6-C ) :   1.0509 
B(  2-N ,  3-N ) :   0.9870 B(  2-N ,  9-H ) :   0.9044 B(  3-N ,  4-C ) :   1.8187 
B(  4-C ,  5-N ) :   1.2109 B(  4-C ,  7-C ) :   1.2343 B(  4-C ,  8-C ) :  -0.2274 
B(  5-N ,  6-C ) :   1.7858 B(  6-C , 10-H ) :   0.9675 B(  7-C ,  8-C ) :   2.8379 
B(  8-C , 11-H ) :   0.8945 

-------
TIMINGS
-------

Total SCF time: 0 days 0 hours 1 min 59 sec 

Total time                  ....     119.161 sec
Sum of individual times     ....     122.123 sec  (102.5%)

Fock matrix formation       ....     117.756 sec  ( 98.8%)
Diagonalization             ....       0.599 sec  (  0.5%)
Density matrix formation    ....       0.045 sec  (  0.0%)
Population analysis         ....       0.122 sec  (  0.1%)
Initial guess               ....       2.093 sec  (  1.8%)
Orbital Transformation      ....       0.000 sec  (  0.0%)
Orbital Orthonormalization  ....       0.000 sec  (  0.0%)
DIIS solution               ....       0.170 sec  (  0.1%)
SOSCF solution              ....       0.325 sec  (  0.3%)

   <<< Auxbasis replaced with dsgdb9nsd_130706.AUXC.tmp (Dim=729) >>> 


------------------------------------------------------------------------------
                              ORCA MP2 CALCULATION
------------------------------------------------------------------------------

Freezing NCore=18 chemical core electrons

   <<< Use J-auxbasis for calculation of Separable RI-J derivative contributions dsgdb9nsd_130706.AUXJ.tmp (Dim=737) >>> 


---------------------
RI-MP2 ENERGY+DENSITY
---------------------
Dimension of the basis                    ...  297
Memory devoted to MP2                     ... 2000 MB   
Data format for buffers                   ... DOUBLE
Compression type for matrix containers    ... UNCOMPRESSED
Overall scaling of the MP2 energy         ...   1.000e+00 Eh
Calculating two index integrals           ... done (    0.015 sec)
Cholesky decomposition of V**-1           ... done (    0.087 sec)

-----------------
RI-TRANSFORMATION (AUX index driven)
-----------------

Dimension of the orbital-basis         ... 297
Dimension of the aux-basis             ... 729
Transformation of internal MOs         ...    0-  30
Transformation of internal/external MOs...    0-  30 to   31- 296
Number Format for Storage              ... Double (8 Byte)
Integral mode                          ... Direct

First Phase: integral generation and transformation of MO indices
  Aux angular momentum 0               ... done (    0.470 sec)
  Aux angular momentum 1               ... done (    0.663 sec)
  Aux angular momentum 2               ... done (    0.759 sec)
  Aux angular momentum 3               ... done (    0.689 sec)
  Aux angular momentum 4               ... done (    0.328 sec)
Closing buffer VIJ ( 0.00 GB; CompressionRatio= 1.93)
Closing buffer VIA ( 0.04 GB; CompressionRatio= 1.00)
  Phase 1 completed in     3.017 sec
Second Phase: sorting and transformation of aux index

IJ-Transformation
Memory available                       ... 1990 MB 
Max. # MO pairs treated in a batch     ... 31    
# of internal orbitals                 ... 31
# batches for internal orbitals        ... 1
Closing buffer IJV ( 0.00 GB; CompressionRatio= 1.00)
(ij|v) transformation done in     0.139 sec

IA-Transformation
Memory available                       ... 1990 MB 
Max. # MO pairs treated in a batch     ... 31    
# of internal orbitals                 ... 31
# batches for internal orbitals        ... 1
Closing buffer IAV ( 0.04 GB; CompressionRatio= 1.00)
(ia|v) transformation done in     0.993 sec

  Phase 2 completed in     1.249 sec
RI-Integral transformation completed in     4.266 sec
Opening buffers                              ... done
Frozen core precalculation                   ... done

Starting loop over batches of integrals:

Operator 0  - window                       ... (  9- 30)x( 31-296)
Operator 0  - Memory available             ...  2000 MB
Operator 0  - Memory needed per MO         ...   3.0 MB
Operator 0  - Number of orbitals per batch ... 22
Operator 0  - Number of batches            ... 1

OPERATOR  0   PASS   0:  MOs     9 ...   30
  Reading integrals       ... ok
  Internal MO  11
  Internal MO  14
  Internal MO  17
  Internal MO  20
  Internal MO  23
  Internal MO  26
  Internal MO  29
Time spent in pair loops =    22.063 sec
Deleting buffer (Ka|jb)[aa] ...done

-----------------------------------------------
 RI-MP2 CORRELATION ENERGY:     -1.567395305 Eh
-----------------------------------------------


---------------------
MP2 DENSITY FORMATION
---------------------

Completing the external part of the density      ... done
Storing the unrelaxed density                    ... done

Calculating G(D)                                 ... done
Completing the Lagrangian                        ... done
Solving the Z-vector equations                   ... 

------------------------------------------------------------------------------
                           ORCA CP-SCF CALCULATION
------------------------------------------------------------------------------

Input orbitals are from        ... dsgdb9nsd_130706.gbw
Input Perturbation             ... dsgdb9nsd_130706.pin.tmp
Wavefunction output            ... dsgdb9nsd_130706.pout.tmp
Perturbation mode              ... Real perturbation
Solver                         ... POPLE
Max. number of iterations      ... 128
Convergence tolerance          ... 1.000e-08
Integral handling              ... Direct
Number of perturbations        ... 1
Number of operators            ... 1
Orbital ranges used for CP-SCF:
 Operator 0:  Orbitals   0... 30  to  31...296
Variables per vector in CP-SCF ... 8246
Number of vectors sought       ... 1
     CP-SCF ITERATION   0: 
     CP-SCF ITERATION   1:      0.005966046
     CP-SCF ITERATION   2:      0.001855485
     CP-SCF ITERATION   3:      0.000134968
     CP-SCF ITERATION   4:      0.000033872
     CP-SCF ITERATION   5:      0.000003802
     CP-SCF ITERATION   6:      0.000000657
     CP-SCF ITERATION   7:      0.000000135
     CP-SCF ITERATION   8:      0.000000017
     CP-SCF ITERATION   9:      0.000000003
done
Finalizing the relaxed density                   ... done
Transforming P to the AO basis                   ... done
Storing the relaxed density                      ... done

                *********************************************
                * UNRELAXED MP2 DENSITY POPULATION ANALYSIS *
                *********************************************

------------------------------------------------------------------------------
                           ORCA POPULATION ANALYSIS
------------------------------------------------------------------------------
Input electron density              ... dsgdb9nsd_130706.pmp2ur
BaseName (.gbw .S,...)              ... dsgdb9nsd_130706

                    ********************************
                    * MULLIKEN POPULATION ANALYSIS *
                    ********************************

-----------------------
MULLIKEN ATOMIC CHARGES
-----------------------
   0 O :   -0.458190
   1 C :    0.399569
   2 N :   -0.206014
   3 N :   -0.162498
   4 C :    0.015476
   5 N :   -0.282404
   6 C :   -0.003170
   7 C :    0.032292
   8 C :   -0.001322
   9 H :    0.281046
  10 H :    0.170071
  11 H :    0.215145
Sum of atomic charges:    0.0000000

--------------------------------
MULLIKEN REDUCED ORBITAL CHARGES
--------------------------------
  0 O s       :     3.836038  s :     3.836038
      pz      :     1.455193  p :     4.553881
      px      :     1.789985
      py      :     1.308704
      dz2     :     0.008770  d :     0.063414
      dxz     :     0.005610
      dyz     :     0.017681
      dx2y2   :     0.017349
      dxy     :     0.014004
      f0      :     0.000579  f :     0.004857
      f+1     :     0.000359
      f-1     :     0.000656
      f+2     :     0.000868
      f-2     :     0.000390
      f+3     :     0.000966
      f-3     :     0.001038
  1 C s       :     2.986020  s :     2.986020
      pz      :     0.712023  p :     2.299231
      px      :     0.819508
      py      :     0.767700
      dz2     :     0.010598  d :     0.288681
      dxz     :     0.022053
      dyz     :     0.083670
      dx2y2   :     0.038029
      dxy     :     0.134333
      f0      :     0.003360  f :     0.026498
      f+1     :     0.001507
      f-1     :     0.001878
      f+2     :     0.003770
      f-2     :     0.002379
      f+3     :     0.008971
      f-3     :     0.004633
  2 N s       :     3.412500  s :     3.412500
      pz      :     1.574560  p :     3.667488
      px      :     1.140366
      py      :     0.952562
      dz2     :     0.011707  d :     0.116057
      dxz     :     0.010832
      dyz     :     0.021595
      dx2y2   :     0.030936
      dxy     :     0.040987
      f0      :     0.001381  f :     0.009968
      f+1     :     0.001215
      f-1     :     0.001591
      f+2     :     0.001039
      f-2     :     0.000690
      f+3     :     0.001951
      f-3     :     0.002101
  3 N s       :     3.608170  s :     3.608170
      pz      :     1.074283  p :     3.426714
      px      :     1.439523
      py      :     0.912908
      dz2     :     0.012714  d :     0.117952
      dxz     :     0.020318
      dyz     :     0.027810
      dx2y2   :     0.030907
      dxy     :     0.026203
      f0      :     0.001302  f :     0.009663
      f+1     :     0.000756
      f-1     :     0.001216
      f+2     :     0.001510
      f-2     :     0.001028
      f+3     :     0.001768
      f-3     :     0.002083
  4 C s       :     3.249040  s :     3.249040
      pz      :     0.937819  p :     2.510167
      px      :     0.743317
      py      :     0.829031
      dz2     :     0.005246  d :     0.204294
      dxz     :     0.040793
      dyz     :     0.033436
      dx2y2   :     0.072404
      dxy     :     0.052415
      f0      :     0.002916  f :     0.021023
      f+1     :     0.001778
      f-1     :     0.001726
      f+2     :     0.001739
      f-2     :     0.002297
      f+3     :     0.006631
      f-3     :     0.003937
  5 N s       :     3.614786  s :     3.614786
      pz      :     1.038541  p :     3.557298
      px      :     1.344726
      py      :     1.174031
      dz2     :     0.012743  d :     0.102705
      dxz     :     0.013830
      dyz     :     0.021902
      dx2y2   :     0.030251
      dxy     :     0.023979
      f0      :     0.001026  f :     0.007614
      f+1     :     0.000754
      f-1     :     0.000809
      f+2     :     0.001120
      f-2     :     0.000674
      f+3     :     0.001521
      f-3     :     0.001709
  6 C s       :     3.189827  s :     3.189827
      pz      :     0.832815  p :     2.659434
      px      :     0.984670
      py      :     0.841950
      dz2     :     0.007621  d :     0.138550
      dxz     :     0.010683
      dyz     :     0.032794
      dx2y2   :     0.028086
      dxy     :     0.059366
      f0      :     0.002261  f :     0.015359
      f+1     :     0.001240
      f-1     :     0.001518
      f+2     :     0.001820
      f-2     :     0.000977
      f+3     :     0.004137
      f-3     :     0.003405
  7 C s       :     3.309444  s :     3.309444
      pz      :     0.969283  p :     2.516037
      px      :     0.960673
      py      :     0.586081
      dz2     :     0.012443  d :     0.125856
      dxz     :     0.005101
      dyz     :     0.042391
      dx2y2   :     0.034547
      dxy     :     0.031373
      f0      :     0.002300  f :     0.016371
      f+1     :     0.000613
      f-1     :     0.001682
      f+2     :     0.003608
      f-2     :     0.000570
      f+3     :     0.005114
      f-3     :     0.002484
  8 C s       :     2.979885  s :     2.979885
      pz      :     0.951838  p :     2.971384
      px      :     0.958389
      py      :     1.061158
      dz2     :     0.002523  d :     0.038694
      dxz     :     0.004694
      dyz     :     0.016751
      dx2y2   :    -0.002493
      dxy     :     0.017220
      f0      :     0.001363  f :     0.011359
      f+1     :     0.000467
      f-1     :     0.001515
      f+2     :     0.002118
      f-2     :     0.000482
      f+3     :     0.003203
      f-3     :     0.002211
  9 H s       :     0.680294  s :     0.680294
      pz      :     0.010776  p :     0.038660
      px      :     0.018611
      py      :     0.009273
 10 H s       :     0.803944  s :     0.803944
      pz      :     0.004272  p :     0.025986
      px      :     0.015415
      py      :     0.006299
 11 H s       :     0.757872  s :     0.757872
      pz      :     0.004468  p :     0.026984
      px      :     0.004353
      py      :     0.018163


                     *******************************
                     * LOEWDIN POPULATION ANALYSIS *
                     *******************************

----------------------
LOEWDIN ATOMIC CHARGES
----------------------
   0 O :    0.041394
   1 C :   -0.395518
   2 N :    0.116034
   3 N :    0.105536
   4 C :   -0.293669
   5 N :    0.168964
   6 C :   -0.110557
   7 C :   -0.068723
   8 C :   -0.048157
   9 H :    0.201108
  10 H :    0.151641
  11 H :    0.131948

-------------------------------
LOEWDIN REDUCED ORBITAL CHARGES
-------------------------------
  0 O s       :     3.400579  s :     3.400579
      pz      :     1.362708  p :     4.451930
      px      :     1.630555
      py      :     1.458667
      dz2     :     0.013900  d :     0.097126
      dxz     :     0.005583
      dyz     :     0.020821
      dx2y2   :     0.033497
      dxy     :     0.023325
      f0      :     0.000840  f :     0.008971
      f+1     :     0.000447
      f-1     :     0.001470
      f+2     :     0.001221
      f-2     :     0.000408
      f+3     :     0.002131
      f-3     :     0.002454
  1 C s       :     2.735928  s :     2.735928
      pz      :     0.705067  p :     2.610309
      px      :     0.940331
      py      :     0.964911
      dz2     :     0.061956  d :     0.910213
      dxz     :     0.072827
      dyz     :     0.199407
      dx2y2   :     0.210840
      dxy     :     0.365183
      f0      :     0.010535  f :     0.139067
      f+1     :     0.006653
      f-1     :     0.011476
      f+2     :     0.021946
      f-2     :     0.011465
      f+3     :     0.052367
      f-3     :     0.024624
  2 N s       :     2.933746  s :     2.933746
      pz      :     1.394286  p :     3.607825
      px      :     1.143274
      py      :     1.070265
      dz2     :     0.027130  d :     0.315807
      dxz     :     0.017097
      dyz     :     0.051733
      dx2y2   :     0.089790
      dxy     :     0.130056
      f0      :     0.002308  f :     0.026589
      f+1     :     0.002158
      f-1     :     0.003600
      f+2     :     0.003634
      f-2     :     0.001370
      f+3     :     0.008647
      f-3     :     0.004873
  3 N s       :     3.081167  s :     3.081167
      pz      :     1.005817  p :     3.472139
      px      :     1.427426
      py      :     1.038896
      dz2     :     0.029674  d :     0.309505
      dxz     :     0.027839
      dyz     :     0.080000
      dx2y2   :     0.099269
      dxy     :     0.072723
      f0      :     0.002753  f :     0.031653
      f+1     :     0.001654
      f-1     :     0.003455
      f+2     :     0.006096
      f-2     :     0.002272
      f+3     :     0.008354
      f-3     :     0.007071
  4 C s       :     2.709351  s :     2.709351
      pz      :     0.848803  p :     2.750528
      px      :     0.951052
      py      :     0.950673
      dz2     :     0.053910  d :     0.729275
      dxz     :     0.105035
      dyz     :     0.083379
      dx2y2   :     0.285776
      dxy     :     0.201175
      f0      :     0.007126  f :     0.104515
      f+1     :     0.009019
      f-1     :     0.006110
      f+2     :     0.008678
      f-2     :     0.012259
      f+3     :     0.042316
      f-3     :     0.019008
  5 N s       :     3.044221  s :     3.044221
      pz      :     0.954644  p :     3.518287
      px      :     1.309261
      py      :     1.254381
      dz2     :     0.024671  d :     0.246208
      dxz     :     0.026819
      dyz     :     0.041942
      dx2y2   :     0.077475
      dxy     :     0.075301
      f0      :     0.001740  f :     0.022321
      f+1     :     0.001538
      f-1     :     0.002274
      f+2     :     0.003507
      f-2     :     0.001305
      f+3     :     0.007022
      f-3     :     0.004934
  6 C s       :     2.791216  s :     2.791216
      pz      :     0.770947  p :     2.759217
      px      :     0.995150
      py      :     0.993121
      dz2     :     0.040306  d :     0.493640
      dxz     :     0.020951
      dyz     :     0.073630
      dx2y2   :     0.136805
      dxy     :     0.221949
      f0      :     0.005051  f :     0.066484
      f+1     :     0.003908
      f-1     :     0.007149
      f+2     :     0.007825
      f-2     :     0.003234
      f+3     :     0.024804
      f-3     :     0.014513
  7 C s       :     2.785950  s :     2.785950
      pz      :     0.881782  p :     2.877479
      px      :     0.868369
      py      :     1.127329
      dz2     :     0.031738  d :     0.351463
      dxz     :     0.005348
      dyz     :     0.123349
      dx2y2   :     0.083453
      dxy     :     0.107575
      f0      :     0.005782  f :     0.053831
      f+1     :     0.001179
      f-1     :     0.008649
      f+2     :     0.009339
      f-2     :     0.000691
      f+3     :     0.013444
      f-3     :     0.014746
  8 C s       :     2.881299  s :     2.881299
      pz      :     0.911203  p :     2.947150
      px      :     0.912967
      py      :     1.122980
      dz2     :     0.021698  d :     0.177831
      dxz     :     0.004672
      dyz     :     0.047803
      dx2y2   :     0.055968
      dxy     :     0.047689
      f0      :     0.004213  f :     0.041877
      f+1     :     0.000952
      f-1     :     0.007195
      f+2     :     0.006864
      f-2     :     0.000541
      f+3     :     0.010463
      f-3     :     0.011648
  9 H s       :     0.689872  s :     0.689872
      pz      :     0.030896  p :     0.109020
      px      :     0.052966
      py      :     0.025157
 10 H s       :     0.784219  s :     0.784219
      pz      :     0.010846  p :     0.064139
      px      :     0.037975
      py      :     0.015318
 11 H s       :     0.793398  s :     0.793398
      pz      :     0.013519  p :     0.074654
      px      :     0.013234
      py      :     0.047902


                      *****************************
                      * MAYER POPULATION ANALYSIS *
                      *****************************

  NA   - Mulliken gross atomic population
  ZA   - Total nuclear charge
  QA   - Mulliken gross atomic charge
  VA   - Mayer's total valence
  BVA  - Mayer's bonded valence
  FA   - Mayer's free valence

  ATOM       NA         ZA         QA         VA         BVA        FA
  0 O      8.4582     8.0000    -0.4582     2.3129     1.8479     0.4650
  1 C      5.6004     6.0000     0.3996     4.2868     3.9333     0.3535
  2 N      7.2060     7.0000    -0.2060     3.3555     2.9166     0.4389
  3 N      7.1625     7.0000    -0.1625     3.0566     2.5917     0.4649
  4 C      5.9845     6.0000     0.0155     4.2056     3.8031     0.4026
  5 N      7.2824     7.0000    -0.2824     3.1544     2.7044     0.4500
  6 C      6.0032     6.0000    -0.0032     3.9750     3.5943     0.3807
  7 C      5.9677     6.0000     0.0323     4.1258     3.7049     0.4209
  8 C      6.0013     6.0000    -0.0013     3.6915     3.2622     0.4293
  9 H      0.7190     1.0000     0.2810     0.9344     0.8877     0.0468
 10 H      0.8299     1.0000     0.1701     0.9786     0.9323     0.0463
 11 H      0.7849     1.0000     0.2151     0.9661     0.9255     0.0405

  Mayer bond orders larger than 0.1
B(  0-O ,  1-C ) :   1.8091 B(  1-C ,  2-N ) :   1.0970 B(  1-C ,  6-C ) :   0.9914 
B(  2-N ,  3-N ) :   0.9126 B(  2-N ,  9-H ) :   0.8664 B(  3-N ,  4-C ) :   1.6655 
B(  4-C ,  5-N ) :   1.1356 B(  4-C ,  7-C ) :   1.1770 B(  4-C ,  8-C ) :  -0.2231 
B(  5-N ,  6-C ) :   1.6347 B(  6-C , 10-H ) :   0.9309 B(  7-C ,  8-C ) :   2.5943 
B(  8-C , 11-H ) :   0.8635 


                *******************************************
                * RELAXED MP2 DENSITY POPULATION ANALYSIS *
                *******************************************

------------------------------------------------------------------------------
                           ORCA POPULATION ANALYSIS
------------------------------------------------------------------------------
Input electron density              ... dsgdb9nsd_130706.pmp2re
BaseName (.gbw .S,...)              ... dsgdb9nsd_130706

                    ********************************
                    * MULLIKEN POPULATION ANALYSIS *
                    ********************************

-----------------------
MULLIKEN ATOMIC CHARGES
-----------------------
   0 O :   -0.337376
   1 C :    0.239988
   2 N :   -0.130111
   3 N :   -0.133193
   4 C :   -0.031359
   5 N :   -0.198919
   6 C :   -0.049306
   7 C :    0.072986
   8 C :   -0.069830
   9 H :    0.270746
  10 H :    0.163242
  11 H :    0.203132
Sum of atomic charges:    0.0000000

--------------------------------
MULLIKEN REDUCED ORBITAL CHARGES
--------------------------------
  0 O s       :     3.809974  s :     3.809974
      pz      :     1.403640  p :     4.462210
      px      :     1.736520
      py      :     1.322050
      dz2     :     0.008413  d :     0.060463
      dxz     :     0.005627
      dyz     :     0.016556
      dx2y2   :     0.015297
      dxy     :     0.014570
      f0      :     0.000565  f :     0.004728
      f+1     :     0.000360
      f-1     :     0.000611
      f+2     :     0.000860
      f-2     :     0.000390
      f+3     :     0.000995
      f-3     :     0.000948
  1 C s       :     3.002040  s :     3.002040
      pz      :     0.836106  p :     2.465007
      px      :     0.853306
      py      :     0.775596
      dz2     :     0.012190  d :     0.268381
      dxz     :     0.019470
      dyz     :     0.073324
      dx2y2   :     0.041315
      dxy     :     0.122082
      f0      :     0.003018  f :     0.024584
      f+1     :     0.001469
      f-1     :     0.002000
      f+2     :     0.003277
      f-2     :     0.002092
      f+3     :     0.008464
      f-3     :     0.004263
  2 N s       :     3.413681  s :     3.413681
      pz      :     1.482497  p :     3.592520
      px      :     1.142781
      py      :     0.967242
      dz2     :     0.011984  d :     0.114384
      dxz     :     0.011191
      dyz     :     0.023279
      dx2y2   :     0.027995
      dxy     :     0.039934
      f0      :     0.001370  f :     0.009527
      f+1     :     0.001118
      f-1     :     0.001463
      f+2     :     0.001074
      f-2     :     0.000710
      f+3     :     0.001946
      f-3     :     0.001847
  3 N s       :     3.586698  s :     3.586698
      pz      :     1.096896  p :     3.427734
      px      :     1.428364
      py      :     0.902473
      dz2     :     0.012376  d :     0.109543
      dxz     :     0.017255
      dyz     :     0.026329
      dx2y2   :     0.028258
      dxy     :     0.025325
      f0      :     0.001198  f :     0.009218
      f+1     :     0.000734
      f-1     :     0.001158
      f+2     :     0.001440
      f-2     :     0.000961
      f+3     :     0.001810
      f-3     :     0.001916
  4 C s       :     3.218847  s :     3.218847
      pz      :     0.954753  p :     2.589163
      px      :     0.795751
      py      :     0.838659
      dz2     :     0.007549  d :     0.203461
      dxz     :     0.034755
      dyz     :     0.034670
      dx2y2   :     0.078591
      dxy     :     0.047896
      f0      :     0.002753  f :     0.019888
      f+1     :     0.001757
      f-1     :     0.001571
      f+2     :     0.001772
      f-2     :     0.002149
      f+3     :     0.006378
      f-3     :     0.003509
  5 N s       :     3.580652  s :     3.580652
      pz      :     1.037453  p :     3.515459
      px      :     1.321537
      py      :     1.156469
      dz2     :     0.012115  d :     0.095487
      dxz     :     0.014263
      dyz     :     0.019016
      dx2y2   :     0.026291
      dxy     :     0.023801
      f0      :     0.000958  f :     0.007321
      f+1     :     0.000699
      f-1     :     0.000762
      f+2     :     0.001094
      f-2     :     0.000710
      f+3     :     0.001567
      f-3     :     0.001530
  6 C s       :     3.209755  s :     3.209755
      pz      :     0.853114  p :     2.694786
      px      :     0.995376
      py      :     0.846296
      dz2     :     0.008360  d :     0.130308
      dxz     :     0.011639
      dyz     :     0.026956
      dx2y2   :     0.028160
      dxy     :     0.055194
      f0      :     0.002096  f :     0.014456
      f+1     :     0.001153
      f-1     :     0.001470
      f+2     :     0.001687
      f-2     :     0.001062
      f+3     :     0.003957
      f-3     :     0.003031
  7 C s       :     3.221676  s :     3.221676
      pz      :     0.964689  p :     2.587954
      px      :     0.948523
      py      :     0.674742
      dz2     :     0.010305  d :     0.101548
      dxz     :     0.005148
      dyz     :     0.036188
      dx2y2   :     0.025542
      dxy     :     0.024364
      f0      :     0.002238  f :     0.015836
      f+1     :     0.000609
      f-1     :     0.001610
      f+2     :     0.003499
      f-2     :     0.000567
      f+3     :     0.004987
      f-3     :     0.002326
  8 C s       :     3.026321  s :     3.026321
      pz      :     0.961350  p :     3.006069
      px      :     0.971577
      py      :     1.073142
      dz2     :     0.002919  d :     0.027040
      dxz     :     0.004692
      dyz     :     0.010062
      dx2y2   :    -0.001236
      dxy     :     0.010604
      f0      :     0.001228  f :     0.010399
      f+1     :     0.000444
      f-1     :     0.001427
      f+2     :     0.001896
      f-2     :     0.000482
      f+3     :     0.002855
      f-3     :     0.002067
  9 H s       :     0.692355  s :     0.692355
      pz      :     0.010182  p :     0.036899
      px      :     0.017689
      py      :     0.009029
 10 H s       :     0.812468  s :     0.812468
      pz      :     0.004410  p :     0.024290
      px      :     0.013804
      py      :     0.006076
 11 H s       :     0.771326  s :     0.771326
      pz      :     0.004726  p :     0.025542
      px      :     0.004637
      py      :     0.016180


                     *******************************
                     * LOEWDIN POPULATION ANALYSIS *
                     *******************************

----------------------
LOEWDIN ATOMIC CHARGES
----------------------
   0 O :    0.097885
   1 C :   -0.461565
   2 N :    0.147655
   3 N :    0.111491
   4 C :   -0.316203
   5 N :    0.182403
   6 C :   -0.141509
   7 C :   -0.064673
   8 C :   -0.043696
   9 H :    0.203510
  10 H :    0.152485
  11 H :    0.132217

-------------------------------
LOEWDIN REDUCED ORBITAL CHARGES
-------------------------------
  0 O s       :     3.402206  s :     3.402206
      pz      :     1.328465  p :     4.392406
      px      :     1.598701
      py      :     1.465240
      dz2     :     0.013659  d :     0.098313
      dxz     :     0.005578
      dyz     :     0.022974
      dx2y2   :     0.031678
      dxy     :     0.024423
      f0      :     0.000945  f :     0.009191
      f+1     :     0.000448
      f-1     :     0.001440
      f+2     :     0.001403
      f-2     :     0.000405
      f+3     :     0.002171
      f-3     :     0.002379
  1 C s       :     2.741144  s :     2.741144
      pz      :     0.791782  p :     2.690827
      px      :     0.944457
      py      :     0.954588
      dz2     :     0.062911  d :     0.897435
      dxz     :     0.064929
      dyz     :     0.187970
      dx2y2   :     0.213331
      dxy     :     0.368295
      f0      :     0.008692  f :     0.132158
      f+1     :     0.006576
      f-1     :     0.011980
      f+2     :     0.021191
      f-2     :     0.010189
      f+3     :     0.049144
      f-3     :     0.024388
  2 N s       :     2.947367  s :     2.947367
      pz      :     1.323979  p :     3.555693
      px      :     1.153260
      py      :     1.078455
      dz2     :     0.028488  d :     0.322683
      dxz     :     0.019574
      dyz     :     0.053654
      dx2y2   :     0.089343
      dxy     :     0.131624
      f0      :     0.002366  f :     0.026601
      f+1     :     0.002094
      f-1     :     0.003585
      f+2     :     0.003783
      f-2     :     0.001534
      f+3     :     0.008431
      f-3     :     0.004808
  3 N s       :     3.085373  s :     3.085373
      pz      :     1.028281  p :     3.469875
      px      :     1.409377
      py      :     1.032218
      dz2     :     0.030226  d :     0.301943
      dxz     :     0.025909
      dyz     :     0.073936
      dx2y2   :     0.099039
      dxy     :     0.072832
      f0      :     0.002426  f :     0.031319
      f+1     :     0.001702
      f-1     :     0.003567
      f+2     :     0.005697
      f-2     :     0.002250
      f+3     :     0.008524
      f-3     :     0.007152
  4 C s       :     2.717352  s :     2.717352
      pz      :     0.857823  p :     2.768982
      px      :     0.957142
      py      :     0.954017
      dz2     :     0.054050  d :     0.726784
      dxz     :     0.097038
      dyz     :     0.084487
      dx2y2   :     0.287691
      dxy     :     0.203518
      f0      :     0.007094  f :     0.103084
      f+1     :     0.009138
      f-1     :     0.005962
      f+2     :     0.009070
      f-2     :     0.012217
      f+3     :     0.041203
      f-3     :     0.018399
  5 N s       :     3.048097  s :     3.048097
      pz      :     0.961660  p :     3.500914
      px      :     1.294049
      py      :     1.245206
      dz2     :     0.024966  d :     0.245936
      dxz     :     0.026881
      dyz     :     0.041217
      dx2y2   :     0.076898
      dxy     :     0.075975
      f0      :     0.001710  f :     0.022650
      f+1     :     0.001554
      f-1     :     0.002332
      f+2     :     0.003618
      f-2     :     0.001358
      f+3     :     0.007186
      f-3     :     0.004893
  6 C s       :     2.799334  s :     2.799334
      pz      :     0.789499  p :     2.782454
      px      :     0.999744
      py      :     0.993211
      dz2     :     0.040926  d :     0.493854
      dxz     :     0.023741
      dyz     :     0.070366
      dx2y2   :     0.136451
      dxy     :     0.222370
      f0      :     0.005163  f :     0.065868
      f+1     :     0.003773
      f-1     :     0.007357
      f+2     :     0.008038
      f-2     :     0.003663
      f+3     :     0.023703
      f-3     :     0.014170
  7 C s       :     2.792014  s :     2.792014
      pz      :     0.883640  p :     2.879630
      px      :     0.875376
      py      :     1.120614
      dz2     :     0.031632  d :     0.337906
      dxz     :     0.005268
      dyz     :     0.117355
      dx2y2   :     0.081978
      dxy     :     0.101673
      f0      :     0.005922  f :     0.055124
      f+1     :     0.001199
      f-1     :     0.008889
      f+2     :     0.009593
      f-2     :     0.000682
      f+3     :     0.013752
      f-3     :     0.015086
  8 C s       :     2.888034  s :     2.888034
      pz      :     0.913689  p :     2.948148
      px      :     0.915477
      py      :     1.118982
      dz2     :     0.021317  d :     0.164806
      dxz     :     0.004669
      dyz     :     0.042251
      dx2y2   :     0.054943
      dxy     :     0.041625
      f0      :     0.004264  f :     0.042708
      f+1     :     0.000964
      f-1     :     0.007385
      f+2     :     0.006951
      f-2     :     0.000541
      f+3     :     0.010636
      f-3     :     0.011968
  9 H s       :     0.689863  s :     0.689863
      pz      :     0.028557  p :     0.106627
      px      :     0.052667
      py      :     0.025402
 10 H s       :     0.783718  s :     0.783718
      pz      :     0.011458  p :     0.063797
      px      :     0.036676
      py      :     0.015663
 11 H s       :     0.793705  s :     0.793705
      pz      :     0.014369  p :     0.074078
      px      :     0.014062
      py      :     0.045648


                      *****************************
                      * MAYER POPULATION ANALYSIS *
                      *****************************

  NA   - Mulliken gross atomic population
  ZA   - Total nuclear charge
  QA   - Mulliken gross atomic charge
  VA   - Mayer's total valence
  BVA  - Mayer's bonded valence
  FA   - Mayer's free valence

  ATOM       NA         ZA         QA         VA         BVA        FA
  0 O      8.3374     8.0000    -0.3374     2.4756     2.0281     0.4476
  1 C      5.7600     6.0000     0.2400     4.3957     4.0664     0.3294
  2 N      7.1301     7.0000    -0.1301     3.4622     3.0432     0.4190
  3 N      7.1332     7.0000    -0.1332     3.1479     2.7029     0.4450
  4 C      6.0314     6.0000    -0.0314     4.3927     4.0057     0.3870
  5 N      7.1989     7.0000    -0.1989     3.2299     2.7965     0.4334
  6 C      6.0493     6.0000    -0.0493     4.0054     3.6395     0.3659
  7 C      5.9270     6.0000     0.0730     4.1685     3.7603     0.4083
  8 C      6.0698     6.0000    -0.0698     3.7988     3.3751     0.4237
  9 H      0.7293     1.0000     0.2707     0.9406     0.8947     0.0459
 10 H      0.8368     1.0000     0.1632     0.9749     0.9293     0.0456
 11 H      0.7969     1.0000     0.2031     0.9686     0.9282     0.0403

  Mayer bond orders larger than 0.1
B(  0-O ,  1-C ) :   1.9211 B(  1-C ,  2-N ) :   1.0688 B(  1-C ,  6-C ) :   1.0110 
B(  2-N ,  3-N ) :   1.0025 B(  2-N ,  9-H ) :   0.8574 B(  3-N ,  4-C ) :   1.6441 
B(  4-C ,  5-N ) :   1.2160 B(  4-C ,  7-C ) :   1.1893 B(  4-C ,  8-C ) :  -0.1455 
B(  5-N ,  6-C ) :   1.6182 B(  6-C , 10-H ) :   0.9200 B(  7-C ,  8-C ) :   2.6080 
B(  8-C , 11-H ) :   0.8729 


-------
TIMINGS
-------

Total time                :  706.357 sec
Integral trafo            :    4.275 sec (  0.6%)
FC preparation            :    2.339 sec (  0.3%)
I/O of integrals          :    0.036 sec (  0.0%)
K(i,j) Operators          :    5.237 sec (  0.7%)
T(i,j) pair energies      :    0.509 sec (  0.1%)
V-calculation             :    0.015 sec (  0.0%)
V**(-1/2)                 :    0.087 sec (  0.0%)
Gamma(ia|P)               :    5.133 sec (  0.7%)
Gamma-Trafo               :    0.948 sec (  0.1%)
D(virtual)                :    1.955 sec (  0.3%)
D(internal)               :    1.682 sec (  0.2%)
W(virtual)                :    0.000 sec (  0.0%)
W(internal)               :    0.000 sec (  0.0%)
L(virtual)                :    6.265 sec (  0.9%)
L(internal)               :    0.125 sec (  0.0%)
G(D)                      :   69.955 sec (  9.9%)
G(Z)                      :    0.000 sec (  0.0%)
Z-Vector Solution         :  607.301 sec ( 86.0%)
3-Index Derivative        :    0.000 sec (  0.0%)
2-Index Derivative        :    0.000 sec (  0.0%)
Separable Gradient (RIJ)  :    0.000 sec (  0.0%)
Separable Gradient (X)    :    0.000 sec (  0.0%)


---------------------------------------
MP2 TOTAL ENERGY:     -430.914831866 Eh
---------------------------------------

-------------------------   --------------------
FINAL SINGLE POINT ENERGY      -430.914831866109
-------------------------   --------------------


                            ***************************************
                            *     ORCA property calculations      *
                            ***************************************

                                    ---------------------
                                    Active property flags
                                    ---------------------
   (+) Dipole Moment


------------------------------------------------------------------------------
                       ORCA ELECTRIC PROPERTIES CALCULATION
------------------------------------------------------------------------------

Dipole Moment Calculation                       ... on
Quadrupole Moment Calculation                   ... off
Polarizability Calculation                      ... off
GBWName                                         ... dsgdb9nsd_130706.gbw
Electron density file                           ... dsgdb9nsd_130706.scfp.tmp

-------------
DIPOLE MOMENT
-------------
                                X             Y             Z
Electronic contribution:     -0.28288      -0.86623      -0.00066
Nuclear contribution   :      0.13227       1.57493       0.00609
                        -----------------------------------------
Total Dipole Moment    :     -0.15061       0.70870       0.00543
                        -----------------------------------------
Magnitude (a.u.)       :      0.72455
Magnitude (Debye)      :      1.84165


                         *** MP2 UNRELAXED DENSITY ***

------------------------------------------------------------------------------
                       ORCA ELECTRIC PROPERTIES CALCULATION
------------------------------------------------------------------------------

Dipole Moment Calculation                       ... on
Quadrupole Moment Calculation                   ... off
Polarizability Calculation                      ... off
GBWName                                         ... dsgdb9nsd_130706.gbw
Electron density file                           ... dsgdb9nsd_130706.pmp2ur

-------------
DIPOLE MOMENT
-------------
                                X             Y             Z
Electronic contribution:     -0.30695      -0.90007      -0.00050
Nuclear contribution   :      0.13227       1.57493       0.00609
                        -----------------------------------------
Total Dipole Moment    :     -0.17468       0.67486       0.00558
                        -----------------------------------------
Magnitude (a.u.)       :      0.69712
Magnitude (Debye)      :      1.77195


                           *** MP2 RELAXED DENSITY ***

------------------------------------------------------------------------------
                       ORCA ELECTRIC PROPERTIES CALCULATION
------------------------------------------------------------------------------

Dipole Moment Calculation                       ... on
Quadrupole Moment Calculation                   ... off
Polarizability Calculation                      ... off
GBWName                                         ... dsgdb9nsd_130706.gbw
Electron density file                           ... dsgdb9nsd_130706.pmp2re

-------------
DIPOLE MOMENT
-------------
                                X             Y             Z
Electronic contribution:     -0.43399      -0.97124       0.00082
Nuclear contribution   :      0.13227       1.57493       0.00609
                        -----------------------------------------
Total Dipole Moment    :     -0.30171       0.60369       0.00691
                        -----------------------------------------
Magnitude (a.u.)       :      0.67493
Magnitude (Debye)      :      1.71552


Timings for individual modules:

Sum of individual times         ...      828.288 sec (=  13.805 min)
GTO integral calculation        ...        0.460 sec (=   0.008 min)   0.1 %
SCF iterations                  ...      121.313 sec (=   2.022 min)  14.6 %
MP2 module                      ...      706.515 sec (=  11.775 min)  85.3 %
                             ****ORCA TERMINATED NORMALLY****
TOTAL RUN TIME: 0 days 0 hours 13 minutes 48 seconds 786 msec
