
                                 *****************
                                 * O   R   C   A *
                                 *****************

           --- An Ab Initio, DFT and Semiempirical electronic structure package ---

                  #######################################################
                  #                        -***-                        #
                  #  Department of molecular theory and spectroscopy    #
                  #              Directorship: Frank Neese              #
                  # Max Planck Institute for Chemical Energy Conversion #
                  #                  D-45470 Muelheim/Ruhr              #
                  #                       Germany                       #
                  #                                                     #
                  #                  All rights reserved                #
                  #                        -***-                        #
                  #######################################################


                         Program Version 3.0.3 - RELEASE   -


 With contributions from (in alphabetic order):
   Ute Becker             : Parallelization
   Dmytro Bykov           : SCF Hessian
   Dmitry Ganyushin       : Spin-Orbit,Spin-Spin,Magnetic field MRCI
   Andreas Hansen         : Spin unrestricted coupled pair/coupled cluster methods
   Dimitrios Liakos       : Extrapolation schemes; parallel MDCI
   Robert Izsak           : Overlap fitted RIJCOSX, COSX-SCS-MP3
   Christian Kollmar      : KDIIS, OOCD, Brueckner-CCSD(T), CCSD density
   Simone Kossmann        : Meta GGA functionals, TD-DFT gradient, OOMP2, MP2 Hessian
   Taras Petrenko         : DFT Hessian,TD-DFT gradient, ASA and ECA modules, normal mode analysis, Resonance Raman, ABS, FL, XAS/XES, NRVS
   Christoph Reimann      : Effective Core Potentials
   Michael Roemelt        : Restricted open shell CIS
   Christoph Riplinger    : Improved optimizer, TS searches, QM/MM, DLPNO-CCSD
   Barbara Sandhoefer     : DKH picture change effects
   Igor Schapiro          : Molecular dynamics
   Kantharuban Sivalingam : CASSCF convergence, NEVPT2
   Boris Wezisla          : Elementary symmetry handling
   Frank Wennmohs         : Technical directorship


 We gratefully acknowledge several colleagues who have allowed us to
 interface, adapt or use parts of their codes:
   Stefan Grimme, W. Hujo, H. Kruse, T. Risthaus : VdW corrections, initial TS optimization,
                                                   DFT functionals, gCP
   Ed Valeev                                     : LibInt (2-el integral package), F12 methods
   Garnet Chan, S. Sharma, R. Olivares           : DMRG
   Ulf Ekstrom                                   : XCFun DFT Library
   Mihaly Kallay                                 : mrcc  (arbitrary order and MRCC methods)
   Andreas Klamt, Michael Diedenhofen            : otool_cosmo (COSMO solvation model)
   Frank Weinhold                                : gennbo (NPA and NBO analysis)
   Christopher J. Cramer and Donald G. Truhlar   : smd solvation model


 Your calculation uses the libint2 library for the computation of 2-el integrals
 For citations please refer to: http://libint.valeyev.net

 This ORCA versions uses:
   CBLAS   interface :  Fast vector & matrix operations
   LAPACKE interface :  Fast linear algebra routines
   SCALAPACK package :  Parallel linear algebra routines


Your calculation utilizes the basis: Ahlrichs-TZV
Cite in your paper:
H - Kr: A. Schaefer, H. Horn and R. Ahlrichs, J. Chem. Phys. 97, 2571 (1992).

The def2-TZV basis will be loaded
Cite in your paper:
 	F. Weigend, R. Ahlrichs, Phys. Chem. Chem. Phys. 2005, 7, 3297.

================================================================================
                                        WARNINGS
                       Please study these warnings very carefully!
================================================================================
Now building the actual basis set


INFO   : the flag for use of LIBINT has been found!

================================================================================
                                       INPUT FILE
================================================================================
NAME = dsgdb9nsd_048834.inp
|  1> ! RI-MP2 RIJK def2-TZVP def2-TZVP/C def2-TZVP/JK TIGHTSCF
|  2> % maxcore 2000
|  3> % mp2 density relaxed end
|  4> *xyz 0 1
|  5>  O       -0.2150291819     0.0766869239     0.3045799865 
|  6>  C       -0.0203510443     1.2053326942    -0.0730948382 
|  7>  C        1.2882854886     1.9051012157    -0.0455703873 
|  8>  C        1.1853338907     3.4165248901     0.2063849339 
|  9>  C        1.5407170026     2.9268877474    -1.1571394404 
| 10>  C        2.9751412482     3.0446186520    -1.6744970283 
| 11>  C        3.7582757617     1.7204473535    -1.6006063717 
| 12>  C        3.5811645720     1.0354013797    -0.2670481233 
| 13>  C        2.4577663064     1.1317832130     0.4429868471 
| 14>  H       -0.8539211762     1.8301766406    -0.4763848554 
| 15>  H        0.1955916430     3.8286949271     0.3768662770 
| 16>  H        1.9714316524     3.8459954521     0.8175642184 
| 17>  H        0.7596452676     2.9974948207    -1.9088227677 
| 18>  H        2.9606677253     3.4147790871    -2.7044710482 
| 19>  H        3.5103010059     3.7954886093    -1.0830005473 
| 20>  H        3.4302799829     1.0428465353    -2.4023535470 
| 21>  H        4.8195348718     1.9135030445    -1.7910005871 
| 22>  H        4.4046018914     0.4318568787     0.1048992792 
| 23>  H        2.3403588418     0.6061078750     1.3853734497 
| 24> *
| 25> 
| 26>                          ****END OF INPUT****
================================================================================

                       ****************************
                       * Single Point Calculation *
                       ****************************

---------------------------------
CARTESIAN COORDINATES (ANGSTROEM)
---------------------------------
  O     -0.215029    0.076687    0.304580
  C     -0.020351    1.205333   -0.073095
  C      1.288285    1.905101   -0.045570
  C      1.185334    3.416525    0.206385
  C      1.540717    2.926888   -1.157139
  C      2.975141    3.044619   -1.674497
  C      3.758276    1.720447   -1.600606
  C      3.581165    1.035401   -0.267048
  C      2.457766    1.131783    0.442987
  H     -0.853921    1.830177   -0.476385
  H      0.195592    3.828695    0.376866
  H      1.971432    3.845995    0.817564
  H      0.759645    2.997495   -1.908823
  H      2.960668    3.414779   -2.704471
  H      3.510301    3.795489   -1.083001
  H      3.430280    1.042847   -2.402354
  H      4.819535    1.913503   -1.791001
  H      4.404602    0.431857    0.104899
  H      2.340359    0.606108    1.385373

----------------------------
CARTESIAN COORDINATES (A.U.)
----------------------------
  NO LB      ZA    FRAG    MASS        X           Y           Z
   0 O     8.0000    0    15.999         -0.406346264592137          0.144917284223860          0.575572760358432
   1 C     6.0000    0    12.011         -0.038457900266299          2.277748692299452         -0.138129226001285
   2 C     6.0000    0    12.011          2.434506755758929          3.600119555073438         -0.086115551813723
   3 C     6.0000    0    12.011          2.239956430678347          6.456296372014402          0.390011003238440
   4 C     6.0000    0    12.011          2.911533184790037          5.531016267315683         -2.186676641114893
   5 C     6.0000    0    12.011          5.622202168830633          5.753495434508493         -3.164340795551984
   6 C     6.0000    0    12.011          7.102111925367288          3.251174325944604         -3.024707690722363
   7 C     6.0000    0    12.011          6.767420281581314          1.956625046317211         -0.504647817614635
   8 C     6.0000    0    12.011          4.644505220275186          2.138760315539463          0.837123821948248
   9 H     1.0000    0     1.008         -1.613677162973914          3.458532627434022         -0.900236911053676
  10 H     1.0000    0     1.008          0.369614639353696          7.235184862552591          0.712174052640506
  11 H     1.0000    0     1.008          3.725465914779837          7.267878116775649          1.544972469669382
  12 H     1.0000    0     1.008          1.435521514693322          5.664444298970387         -3.607152269146585
  13 H     1.0000    0     1.008          5.594851174356595          6.452997282460624         -5.110709618216941
  14 H     1.0000    0     1.008          6.633507548779288          7.172434015994637         -2.046574437283828
  15 H     1.0000    0     1.008          6.482289730353075          1.970694351425641         -4.539790280684316
  16 H     1.0000    0     1.008          9.107601000585269          3.615996710529530         -3.384500615311175
  17 H     1.0000    0     1.008          8.323491303697555          0.816091229793050          0.198230909333742
  18 H     1.0000    0     1.008          4.422637266103132          1.145377891362975          2.617976413138729

--------------------------------
INTERNAL COORDINATES (ANGSTROEM)
--------------------------------
 O      0   0   0   0.000000     0.000     0.000
 C      1   0   0   1.205976     0.000     0.000
 C      2   1   0   1.484238   125.293     0.000
 C      3   2   1   1.535735   114.075   213.255
 C      4   3   2   1.491724    60.727   252.626
 C      5   4   3   1.529409   120.489   254.136
 C      6   5   4   1.540191   113.233   101.608
 C      7   6   5   1.509647   111.892   313.867
 C      8   7   6   1.332465   122.466    31.784
 H      2   1   3   1.117100   121.070   180.723
 H      4   3   2   1.085605   117.422     2.260
 H      4   3   2   1.084405   115.699   143.277
 H      5   4   3   1.086318   116.095   105.832
 H      6   5   4   1.094566   109.387   224.724
 H      6   5   4   1.095477   109.165   340.804
 H      7   6   5   1.099783   110.065    75.516
 H      7   6   5   1.095350   109.437   191.279
 H      8   7   6   1.086582   117.744   210.755
 H      9   8   7   1.085455   121.252   178.097

---------------------------
INTERNAL COORDINATES (A.U.)
---------------------------
 O      0   0   0   0.000000     0.000     0.000
 C      1   0   0   2.278965     0.000     0.000
 C      2   1   0   2.804804   125.293     0.000
 C      3   2   1   2.902119   114.075   213.255
 C      4   3   2   2.818950    60.727   252.626
 C      5   4   3   2.890164   120.489   254.136
 C      6   5   4   2.910540   113.233   101.608
 C      7   6   5   2.852819   111.892   313.867
 C      8   7   6   2.517994   122.466    31.784
 H      2   1   3   2.111013   121.070   180.723
 H      4   3   2   2.051496   117.422     2.260
 H      4   3   2   2.049229   115.699   143.277
 H      5   4   3   2.052843   116.095   105.832
 H      6   5   4   2.068430   109.387   224.724
 H      6   5   4   2.070151   109.165   340.804
 H      7   6   5   2.078289   110.065    75.516
 H      7   6   5   2.069911   109.437   191.279
 H      8   7   6   2.053342   117.744   210.755
 H      9   8   7   2.051212   121.252   178.097

---------------------
BASIS SET INFORMATION
---------------------
There are 3 groups of distinct atoms

 Group   1 Type O   : 11s6p2d1f contracted to 5s3p2d1f pattern {62111/411/11/1}
 Group   2 Type C   : 11s6p2d1f contracted to 5s3p2d1f pattern {62111/411/11/1}
 Group   3 Type H   : 5s1p contracted to 3s1p pattern {311/1}

Atom   0O    basis set group =>   1
Atom   1C    basis set group =>   2
Atom   2C    basis set group =>   2
Atom   3C    basis set group =>   2
Atom   4C    basis set group =>   2
Atom   5C    basis set group =>   2
Atom   6C    basis set group =>   2
Atom   7C    basis set group =>   2
Atom   8C    basis set group =>   2
Atom   9H    basis set group =>   3
Atom  10H    basis set group =>   3
Atom  11H    basis set group =>   3
Atom  12H    basis set group =>   3
Atom  13H    basis set group =>   3
Atom  14H    basis set group =>   3
Atom  15H    basis set group =>   3
Atom  16H    basis set group =>   3
Atom  17H    basis set group =>   3
Atom  18H    basis set group =>   3
-------------------------------
AUXILIARY BASIS SET INFORMATION
-------------------------------
There are 3 groups of distinct atoms

 Group   1 Type O   : 14s10p6d2f1g contracted to 10s8p4d2f1g pattern {5111111111/31111111/3111/11/1}
 Group   2 Type C   : 14s10p6d2f1g contracted to 10s8p5d1f1g pattern {5111111111/31111111/21111/2/1}
 Group   3 Type H   : 4s2p2d contracted to 2s2p2d pattern {31/11/11}

Atom   0O    basis set group =>   1
Atom   1C    basis set group =>   2
Atom   2C    basis set group =>   2
Atom   3C    basis set group =>   2
Atom   4C    basis set group =>   2
Atom   5C    basis set group =>   2
Atom   6C    basis set group =>   2
Atom   7C    basis set group =>   2
Atom   8C    basis set group =>   2
Atom   9H    basis set group =>   3
Atom  10H    basis set group =>   3
Atom  11H    basis set group =>   3
Atom  12H    basis set group =>   3
Atom  13H    basis set group =>   3
Atom  14H    basis set group =>   3
Atom  15H    basis set group =>   3
Atom  16H    basis set group =>   3
Atom  17H    basis set group =>   3
Atom  18H    basis set group =>   3
------------------------------------------------------------------------------
                           ORCA GTO INTEGRAL CALCULATION
                           -- RI-GTO INTEGRALS CHOSEN --
------------------------------------------------------------------------------

                         BASIS SET STATISTICS AND STARTUP INFO

Gaussian basis set:
 # of primitive gaussian shells          ...  240
 # of primitive gaussian functions       ...  494
 # of contracted shells                  ...  139
 # of contracted basis functions         ...  339
 Highest angular momentum                ...    3
 Maximum contraction depth               ...    6
Auxiliary gaussian basis set:
 # of primitive gaussian shells          ...  377
 # of primitive gaussian functions       ... 1073
 # of contracted shells                  ...  285
 # of contracted aux-basis functions     ...  857
 Highest angular momentum                ...    4
 Maximum contraction depth               ...    5
Ratio of auxiliary to basis functions    ...  2.53
Integral package used                  ... LIBINT
 One Electron integrals                  ... done
 Ordering auxiliary basis shells         ... done
 Integral threshhold             Thresh  ...  2.500e-11
 Primitive cut-off               TCut    ...  2.500e-12
 Pre-screening matrix                    ... done
 Shell pair data                         ... 
 Ordering of the shell pairs             ... done (   0.002 sec) 9021 of 9730 pairs
 Determination of significant pairs      ... done (   0.000 sec)
 Creation of shell pair data             ... done (   0.002 sec)
 Storage of shell pair data              ... done (   0.002 sec)
 Shell pair data done in (   0.006 sec)
 Computing two index integrals           ... done
 Cholesky decomposition of the V-matrix  ... done


Timings:
 Total evaluation time                   ...   0.411 sec (  0.007 min)
 One electron matrix time                ...   0.098 sec (  0.002 min) = 23.9%
 Schwartz matrix evaluation time         ...   0.221 sec (  0.004 min) = 53.8%
 Two index repulsion integral time       ...   0.023 sec (  0.000 min) =  5.5%
 Cholesky decomposition of V             ...   0.035 sec (  0.001 min) =  8.6%
 Three index repulsion integral time     ...   0.000 sec (  0.000 min) =  0.0%

-------------------------------------------------------------------------------
                                 ORCA SCF
-------------------------------------------------------------------------------

------------
SCF SETTINGS
------------
Hamiltonian:
 Ab initio Hamiltonian  Method          .... Hartree-Fock(GTOs)
 RI-approximation to the Coulomb term is turned on
   Number of auxiliary basis functions  .... 857
   RI-JK (J+K treated both via RI)      .... on


General Settings:
 Integral files         IntName         .... dsgdb9nsd_048834
 Hartree-Fock type      HFTyp           .... RHF
 Total Charge           Charge          ....    0
 Multiplicity           Mult            ....    1
 Number of Electrons    NEL             ....   66
 Basis Dimension        Dim             ....  339
 Nuclear Repulsion      ENuc            ....    435.6121984687 Eh

Convergence Acceleration:
 DIIS                   CNVDIIS         .... on
   Start iteration      DIISMaxIt       ....    12
   Startup error        DIISStart       ....  0.200000
   # of expansion vecs  DIISMaxEq       ....     5
   Bias factor          DIISBfac        ....   1.050
   Max. coefficient     DIISMaxC        ....  10.000
 Newton-Raphson         CNVNR           .... off
 SOSCF                  CNVSOSCF        .... on
   Start iteration      SOSCFMaxIt      ....   150
   Startup grad/error   SOSCFStart      ....  0.003300
 Level Shifting         CNVShift        .... on
   Level shift para.    LevelShift      ....    0.2500
   Turn off err/grad.   ShiftErr        ....    0.0010
 Zerner damping         CNVZerner       .... off
 Static damping         CNVDamp         .... on
   Fraction old density DampFac         ....    0.7000
   Max. Damping (<1)    DampMax         ....    0.9800
   Min. Damping (>=0)   DampMin         ....    0.0000
   Turn off err/grad.   DampErr         ....    0.1000
 Fernandez-Rico         CNVRico         .... off

SCF Procedure:
 Maximum # iterations   MaxIter         ....   125
 SCF integral mode      SCFMode         .... Direct
   Integral package                     .... LIBINT
 Reset frequeny         DirectResetFreq ....    20
 Integral Threshold     Thresh          ....  2.500e-11 Eh
 Primitive CutOff       TCut            ....  2.500e-12 Eh

Convergence Tolerance:
 Convergence Check Mode ConvCheckMode   .... Total+1el-Energy
 Energy Change          TolE            ....  1.000e-08 Eh
 1-El. energy change                    ....  1.000e-05 Eh
 Orbital Gradient       TolG            ....  1.000e-05
 Orbital Rotation angle TolX            ....  1.000e-05
 DIIS Error             TolErr          ....  5.000e-07


Diagonalization of the overlap matrix:
Smallest eigenvalue                        ... 5.220e-05
Time for diagonalization                   ...    0.034 sec
Threshold for overlap eigenvalues          ... 1.000e-08
Number of eigenvalues below threshold      ... 0
Time for construction of square roots      ...    0.018 sec
Total time needed                          ...    0.052 sec

-------------------
DFT GRID GENERATION
-------------------

General Integration Accuracy     IntAcc      ...  4.340
Radial Grid Type                 RadialGrid  ... Gauss-Chebyshev
Angular Grid (max. acc.)         AngularGrid ... Lebedev-110
Angular grid pruning method      GridPruning ... 3 (G Style)
Weight generation scheme         WeightScheme... Becke
Basis function cutoff            BFCut       ...    1.0000e-11
Integration weight cutoff        WCut        ...    1.0000e-14
Grids for H and He will be reduced by one unit

# of grid points (after initial pruning)     ...  22904 (   0.0 sec)
# of grid points (after weights+screening)   ...  20931 (   0.1 sec)
nearest neighbour list constructed           ...    0.0 sec
Grid point re-assignment to atoms done       ...    0.0 sec
Grid point division into batches done        ...    0.0 sec
Reduced shell lists constructed in    1.4 sec

Total number of grid points                  ...    20931
Total number of batches                      ...      336
Average number of points per batch           ...       62
Average number of grid points per atom       ...     1102
Average number of shells per batch           ...    96.28 (69.27%)
Average number of basis functions per batch  ...   242.29 (71.47%)
Average number of large shells per batch     ...    75.28 (78.19%)
Average number of large basis fcns per batch ...   186.69 (77.05%)
Average number of aux-shells per batch       ...    96.28 (33.78%)
Average number of aux functions per batch    ...   242.29 (  inf%)
Maximum spatial batch extension              ...  18.83, 22.96, 19.49 au
Average spatial batch extension              ...   3.65,  3.80,  3.86 au

Time for grid setup =    1.522 sec

------------------------------
INITIAL GUESS: MODEL POTENTIAL
------------------------------
Loading Hartree-Fock densities                     ... done
Calculating cut-offs                               ... done
Setting up the integral package                    ... done
Initializing the effective Hamiltonian             ... done
Starting the Coulomb interaction                   ... done (   0.7 sec)
Reading the grid                                   ... done
Mapping shells                                     ... done
Starting the XC term evaluation                    ... done (   0.8 sec)
Transforming the Hamiltonian                       ... done (   0.0 sec)
Diagonalizing the Hamiltonian                      ... done (   0.0 sec)
Back transforming the eigenvectors                 ... done (   0.0 sec)
Now organizing SCF variables                       ... done
                      ------------------
                      INITIAL GUESS DONE (   3.2 sec)
                      ------------------
--------------
SCF ITERATIONS
--------------
ITER       Energy         Delta-E        Max-DP      RMS-DP      [F,P]     Damp
  0   -383.3185902428   0.000000000000 0.08327178  0.00095703  0.2866924 0.7000
  1   -383.1891978326   0.129392410189 0.12170716  0.00108167  0.2658931 0.7000
                               ***Turning on DIIS***
  2   -383.2323355511  -0.043137718503 0.08029843  0.00076472  0.1867095 0.7000
  3   -384.3338237016  -1.101488150572 0.01237385  0.00036846  0.1331076 0.7000
  4   -383.6172813286   0.716542373045 0.10562346  0.00103848  0.0860351 0.0000
  5   -383.7575338586  -0.140252529958 0.01501489  0.00022561  0.0349777 0.0000
  6   -383.6316556296   0.125878228968 0.01209138  0.00012048  0.0131502 0.0000
  7   -383.6544101302  -0.022754500626 0.00229794  0.00005440  0.0062330 0.0000
  8   -383.6384382212   0.015971909031 0.00244588  0.00004933  0.0060251 0.0000
                      *** Initiating the SOSCF procedure ***
                           *** Shutting down DIIS ***
                      *** Re-Reading the Fockian *** 
                      *** Removing any level shift *** 
ITER      Energy       Delta-E        Grad      Rot      Max-DP    RMS-DP
  9   -383.71060145  -0.0721632273  0.000438  0.000438  0.001004  0.000013
 10   -383.71545602  -0.0048545683  0.000235  0.000353  0.000920  0.000009
 11   -383.71545736  -0.0000013437  0.000088  0.000346  0.001752  0.000012
 12   -383.71545789  -0.0000005284  0.000026  0.000032  0.000084  0.000002
 13   -383.71545794  -0.0000000479  0.000018  0.000024  0.000030  0.000001
                  ***Gradient check signals convergence***
              ***Rediagonalizing the Fockian in SOSCF/NRSCF***

               *****************************************************
               *                     SUCCESS                       *
               *           SCF CONVERGED AFTER  14 CYCLES          *
               *****************************************************


----------------
TOTAL SCF ENERGY
----------------

Total Energy       :         -383.71545794 Eh          -10441.42844 eV

Components:
Nuclear Repulsion  :          435.61219847 Eh           11853.61055 eV
Electronic Energy  :         -819.32765641 Eh          -22295.03899 eV

One Electron Energy:        -1383.96633268 Eh          -37659.63849 eV
Two Electron Energy:          564.63867627 Eh           15364.59950 eV

Virial components:
Potential Energy   :         -766.94592321 Eh          -20869.65956 eV
Kinetic Energy     :          383.23046527 Eh           10428.23112 eV
Virial Ratio       :            2.00126554


---------------
SCF CONVERGENCE
---------------

  Last Energy change         ...   -7.1315e-09  Tolerance :   1.0000e-08
  Last MAX-Density change    ...    3.6540e-05  Tolerance :   1.0000e-07
  Last RMS-Density change    ...    2.9434e-07  Tolerance :   5.0000e-09
  Last Orbital Gradient      ...    1.8345e-06  Tolerance :   1.0000e-05
  Last Orbital Rotation      ...    4.5250e-06  Tolerance :   1.0000e-05

             **** THE GBW FILE WAS UPDATED (dsgdb9nsd_048834.gbw) ****
             **** DENSITY FILE WAS UPDATED (dsgdb9nsd_048834.scfp.tmp) ****
             **** ENERGY FILE WAS UPDATED (dsgdb9nsd_048834.en.tmp) ****
----------------
ORBITAL ENERGIES
----------------

  NO   OCC          E(Eh)            E(eV) 
   0   2.0000     -20.547546      -559.1271 
   1   2.0000     -11.328681      -308.2691 
   2   2.0000     -11.254711      -306.2562 
   3   2.0000     -11.253466      -306.2224 
   4   2.0000     -11.249323      -306.1096 
   5   2.0000     -11.238081      -305.8037 
   6   2.0000     -11.233458      -305.6779 
   7   2.0000     -11.231203      -305.6166 
   8   2.0000     -11.228715      -305.5489 
   9   2.0000      -1.388267       -37.7767 
  10   2.0000      -1.188957       -32.3532 
  11   2.0000      -1.075262       -29.2594 
  12   2.0000      -1.021378       -27.7931 
  13   2.0000      -0.902668       -24.5628 
  14   2.0000      -0.891126       -24.2488 
  15   2.0000      -0.816634       -22.2217 
  16   2.0000      -0.791321       -21.5329 
  17   2.0000      -0.702564       -19.1177 
  18   2.0000      -0.687046       -18.6955 
  19   2.0000      -0.659467       -17.9450 
  20   2.0000      -0.643654       -17.5147 
  21   2.0000      -0.607895       -16.5417 
  22   2.0000      -0.601516       -16.3681 
  23   2.0000      -0.569994       -15.5103 
  24   2.0000      -0.559539       -15.2258 
  25   2.0000      -0.537211       -14.6183 
  26   2.0000      -0.534728       -14.5507 
  27   2.0000      -0.498437       -13.5632 
  28   2.0000      -0.480645       -13.0790 
  29   2.0000      -0.441285       -12.0080 
  30   2.0000      -0.425602       -11.5812 
  31   2.0000      -0.409138       -11.1332 
  32   2.0000      -0.344834        -9.3834 
  33   0.0000       0.130768         3.5584 
  34   0.0000       0.132622         3.6088 
  35   0.0000       0.150061         4.0834 
  36   0.0000       0.155693         4.2366 
  37   0.0000       0.171675         4.6715 
  38   0.0000       0.178196         4.8490 
  39   0.0000       0.187358         5.0983 
  40   0.0000       0.195277         5.3138 
  41   0.0000       0.207885         5.6569 
  42   0.0000       0.212431         5.7805 
  43   0.0000       0.224150         6.0994 
  44   0.0000       0.243457         6.6248 
  45   0.0000       0.247288         6.7291 
  46   0.0000       0.254489         6.9250 
  47   0.0000       0.271387         7.3848 
  48   0.0000       0.282497         7.6871 
  49   0.0000       0.301969         8.2170 
  50   0.0000       0.316301         8.6070 
  51   0.0000       0.327413         8.9094 
  52   0.0000       0.328267         8.9326 
  53   0.0000       0.361037         9.8243 
  54   0.0000       0.370276        10.0757 
  55   0.0000       0.376446        10.2436 
  56   0.0000       0.382468        10.4075 
  57   0.0000       0.401160        10.9161 
  58   0.0000       0.413940        11.2639 
  59   0.0000       0.426740        11.6122 
  60   0.0000       0.427372        11.6294 
  61   0.0000       0.454483        12.3671 
  62   0.0000       0.464531        12.6405 
  63   0.0000       0.475995        12.9525 
  64   0.0000       0.493975        13.4417 
  65   0.0000       0.504313        13.7231 
  66   0.0000       0.521099        14.1798 
  67   0.0000       0.531238        14.4557 
  68   0.0000       0.540017        14.6946 
  69   0.0000       0.548577        14.9276 
  70   0.0000       0.553938        15.0734 
  71   0.0000       0.558810        15.2060 
  72   0.0000       0.569722        15.5029 
  73   0.0000       0.575430        15.6582 
  74   0.0000       0.585845        15.9417 
  75   0.0000       0.592209        16.1148 
  76   0.0000       0.596897        16.2424 
  77   0.0000       0.607732        16.5372 
  78   0.0000       0.620299        16.8792 
  79   0.0000       0.625264        17.0143 
  80   0.0000       0.634246        17.2587 
  81   0.0000       0.648046        17.6342 
  82   0.0000       0.655500        17.8371 
  83   0.0000       0.663936        18.0666 
  84   0.0000       0.669354        18.2141 
  85   0.0000       0.677088        18.4245 
  86   0.0000       0.697527        18.9807 
  87   0.0000       0.699889        19.0450 
  88   0.0000       0.716969        19.5097 
  89   0.0000       0.729032        19.8380 
  90   0.0000       0.758430        20.6379 
  91   0.0000       0.771870        21.0037 
  92   0.0000       0.801922        21.8214 
  93   0.0000       0.807306        21.9679 
  94   0.0000       0.834228        22.7005 
  95   0.0000       0.851049        23.1582 
  96   0.0000       0.860763        23.4226 
  97   0.0000       0.892078        24.2747 
  98   0.0000       0.916050        24.9270 
  99   0.0000       0.941595        25.6221 
 100   0.0000       0.970334        26.4041 
 101   0.0000       0.987671        26.8759 
 102   0.0000       0.996416        27.1139 
 103   0.0000       1.032967        28.1085 
 104   0.0000       1.050742        28.5921 
 105   0.0000       1.076467        29.2922 
 106   0.0000       1.081527        29.4298 
 107   0.0000       1.102071        29.9889 
 108   0.0000       1.128174        30.6992 
 109   0.0000       1.144192        31.1350 
 110   0.0000       1.158918        31.5358 
 111   0.0000       1.166422        31.7400 
 112   0.0000       1.180106        32.1123 
 113   0.0000       1.186462        32.2853 
 114   0.0000       1.208606        32.8879 
 115   0.0000       1.237819        33.6828 
 116   0.0000       1.245883        33.9022 
 117   0.0000       1.258787        34.2533 
 118   0.0000       1.273407        34.6512 
 119   0.0000       1.288210        35.0540 
 120   0.0000       1.304774        35.5047 
 121   0.0000       1.336128        36.3579 
 122   0.0000       1.344820        36.5944 
 123   0.0000       1.367111        37.2010 
 124   0.0000       1.382326        37.6150 
 125   0.0000       1.403268        38.1849 
 126   0.0000       1.410091        38.3705 
 127   0.0000       1.439034        39.1581 
 128   0.0000       1.462818        39.8053 
 129   0.0000       1.472646        40.0727 
 130   0.0000       1.489847        40.5408 
 131   0.0000       1.518595        41.3231 
 132   0.0000       1.529462        41.6188 
 133   0.0000       1.553441        42.2713 
 134   0.0000       1.578751        42.9600 
 135   0.0000       1.597173        43.4613 
 136   0.0000       1.603716        43.6393 
 137   0.0000       1.638959        44.5983 
 138   0.0000       1.664148        45.2838 
 139   0.0000       1.680352        45.7247 
 140   0.0000       1.702377        46.3240 
 141   0.0000       1.743530        47.4439 
 142   0.0000       1.747300        47.5465 
 143   0.0000       1.782086        48.4930 
 144   0.0000       1.799507        48.9671 
 145   0.0000       1.805246        49.1232 
 146   0.0000       1.831182        49.8290 
 147   0.0000       1.850251        50.3479 
 148   0.0000       1.861843        50.6633 
 149   0.0000       1.893663        51.5292 
 150   0.0000       1.895233        51.5719 
 151   0.0000       1.907700        51.9112 
 152   0.0000       1.928262        52.4707 
 153   0.0000       1.955801        53.2200 
 154   0.0000       1.979318        53.8600 
 155   0.0000       1.987513        54.0830 
 156   0.0000       2.008711        54.6598 
 157   0.0000       2.024046        55.0771 
 158   0.0000       2.030854        55.2623 
 159   0.0000       2.042673        55.5840 
 160   0.0000       2.083584        56.6972 
 161   0.0000       2.094798        57.0024 
 162   0.0000       2.111436        57.4551 
 163   0.0000       2.141124        58.2630 
 164   0.0000       2.158833        58.7448 
 165   0.0000       2.182628        59.3923 
 166   0.0000       2.192609        59.6639 
 167   0.0000       2.220718        60.4288 
 168   0.0000       2.243165        61.0396 
 169   0.0000       2.275992        61.9329 
 170   0.0000       2.288421        62.2711 
 171   0.0000       2.315778        63.0155 
 172   0.0000       2.317426        63.0604 
 173   0.0000       2.337715        63.6124 
 174   0.0000       2.348610        63.9089 
 175   0.0000       2.380009        64.7633 
 176   0.0000       2.414599        65.7046 
 177   0.0000       2.448897        66.6379 
 178   0.0000       2.455650        66.8216 
 179   0.0000       2.477809        67.4246 
 180   0.0000       2.508189        68.2513 
 181   0.0000       2.513580        68.3980 
 182   0.0000       2.562376        69.7258 
 183   0.0000       2.569831        69.9287 
 184   0.0000       2.588019        70.4236 
 185   0.0000       2.611760        71.0696 
 186   0.0000       2.626779        71.4783 
 187   0.0000       2.653990        72.2187 
 188   0.0000       2.672112        72.7119 
 189   0.0000       2.700462        73.4833 
 190   0.0000       2.743526        74.6551 
 191   0.0000       2.755026        74.9681 
 192   0.0000       2.766880        75.2906 
 193   0.0000       2.785615        75.8004 
 194   0.0000       2.802470        76.2591 
 195   0.0000       2.819645        76.7264 
 196   0.0000       2.852829        77.6294 
 197   0.0000       2.860169        77.8291 
 198   0.0000       2.877253        78.2940 
 199   0.0000       2.878513        78.3283 
 200   0.0000       2.901348        78.9497 
 201   0.0000       2.911288        79.2202 
 202   0.0000       2.913321        79.2755 
 203   0.0000       2.938037        79.9480 
 204   0.0000       2.947341        80.2012 
 205   0.0000       2.956418        80.4482 
 206   0.0000       2.989157        81.3391 
 207   0.0000       2.994925        81.4961 
 208   0.0000       3.004802        81.7648 
 209   0.0000       3.012395        81.9714 
 210   0.0000       3.029519        82.4374 
 211   0.0000       3.048106        82.9432 
 212   0.0000       3.076206        83.7078 
 213   0.0000       3.081088        83.8407 
 214   0.0000       3.101193        84.3877 
 215   0.0000       3.137303        85.3704 
 216   0.0000       3.140404        85.4547 
 217   0.0000       3.179933        86.5304 
 218   0.0000       3.187256        86.7296 
 219   0.0000       3.206499        87.2533 
 220   0.0000       3.229491        87.8789 
 221   0.0000       3.241606        88.2086 
 222   0.0000       3.266407        88.8835 
 223   0.0000       3.291689        89.5714 
 224   0.0000       3.317898        90.2846 
 225   0.0000       3.330860        90.6373 
 226   0.0000       3.336962        90.8033 
 227   0.0000       3.345647        91.0397 
 228   0.0000       3.371609        91.7461 
 229   0.0000       3.394005        92.3556 
 230   0.0000       3.396836        92.4326 
 231   0.0000       3.415675        92.9452 
 232   0.0000       3.433413        93.4279 
 233   0.0000       3.440976        93.6337 
 234   0.0000       3.465381        94.2978 
 235   0.0000       3.473837        94.5279 
 236   0.0000       3.485859        94.8551 
 237   0.0000       3.503894        95.3458 
 238   0.0000       3.532243        96.1172 
 239   0.0000       3.536725        96.2392 
 240   0.0000       3.549953        96.5991 
 241   0.0000       3.566361        97.0456 
 242   0.0000       3.576975        97.3344 
 243   0.0000       3.590255        97.6958 
 244   0.0000       3.604290        98.0777 
 245   0.0000       3.618212        98.4565 
 246   0.0000       3.642573        99.1195 
 247   0.0000       3.647930        99.2652 
 248   0.0000       3.663179        99.6802 
 249   0.0000       3.668845        99.8343 
 250   0.0000       3.679366       100.1206 
 251   0.0000       3.686407       100.3122 
 252   0.0000       3.713509       101.0497 
 253   0.0000       3.739457       101.7558 
 254   0.0000       3.748064       101.9900 
 255   0.0000       3.761317       102.3507 
 256   0.0000       3.785283       103.0028 
 257   0.0000       3.794149       103.2441 
 258   0.0000       3.799303       103.3843 
 259   0.0000       3.854400       104.8835 
 260   0.0000       3.868477       105.2666 
 261   0.0000       3.904706       106.2525 
 262   0.0000       3.918511       106.6281 
 263   0.0000       3.950301       107.4932 
 264   0.0000       3.959646       107.7474 
 265   0.0000       3.989110       108.5492 
 266   0.0000       3.997938       108.7894 
 267   0.0000       4.022516       109.4582 
 268   0.0000       4.078038       110.9691 
 269   0.0000       4.087094       111.2155 
 270   0.0000       4.114679       111.9661 
 271   0.0000       4.124684       112.2384 
 272   0.0000       4.139983       112.6547 
 273   0.0000       4.177082       113.6642 
 274   0.0000       4.212746       114.6346 
 275   0.0000       4.228273       115.0572 
 276   0.0000       4.253909       115.7547 
 277   0.0000       4.307099       117.2021 
 278   0.0000       4.337357       118.0255 
 279   0.0000       4.345172       118.2381 
 280   0.0000       4.355664       118.5236 
 281   0.0000       4.388247       119.4103 
 282   0.0000       4.420600       120.2906 
 283   0.0000       4.443114       120.9033 
 284   0.0000       4.454239       121.2060 
 285   0.0000       4.464901       121.4961 
 286   0.0000       4.489791       122.1734 
 287   0.0000       4.506815       122.6367 
 288   0.0000       4.541988       123.5938 
 289   0.0000       4.573945       124.4634 
 290   0.0000       4.592811       124.9767 
 291   0.0000       4.605181       125.3133 
 292   0.0000       4.648589       126.4945 
 293   0.0000       4.675744       127.2335 
 294   0.0000       4.721106       128.4678 
 295   0.0000       4.740315       128.9905 
 296   0.0000       4.766782       129.7107 
 297   0.0000       4.782501       130.1385 
 298   0.0000       4.825673       131.3133 
 299   0.0000       4.871744       132.5669 
 300   0.0000       4.912851       133.6855 
 301   0.0000       4.957031       134.8877 
 302   0.0000       4.978160       135.4626 
 303   0.0000       5.004743       136.1860 
 304   0.0000       5.071010       137.9892 
 305   0.0000       5.109241       139.0295 
 306   0.0000       5.141422       139.9052 
 307   0.0000       5.177957       140.8994 
 308   0.0000       5.198171       141.4494 
 309   0.0000       5.228545       142.2759 
 310   0.0000       5.269769       143.3977 
 311   0.0000       5.294088       144.0595 
 312   0.0000       5.368251       146.0775 
 313   0.0000       5.432844       147.8352 
 314   0.0000       5.457617       148.5093 
 315   0.0000       5.491724       149.4374 
 316   0.0000       5.618484       152.8867 
 317   0.0000       5.652039       153.7998 
 318   0.0000       5.672757       154.3636 
 319   0.0000       5.768510       156.9691 
 320   0.0000       6.041864       164.4075 
 321   0.0000       6.153441       167.4436 
 322   0.0000       6.620123       180.1427 
 323   0.0000       6.881353       187.2511 
 324   0.0000       6.888425       187.4436 
 325   0.0000       6.957047       189.3109 
 326   0.0000       7.010590       190.7678 
 327   0.0000       7.333611       199.5577 
 328   0.0000       7.503154       204.1712 
 329   0.0000       7.603188       206.8933 
 330   0.0000      23.384797       636.3327 
 331   0.0000      23.489797       639.1899 
 332   0.0000      23.571599       641.4158 
 333   0.0000      23.619965       642.7319 
 334   0.0000      23.691625       644.6819 
 335   0.0000      23.898455       650.3100 
 336   0.0000      24.015905       653.5060 
 337   0.0000      24.106196       655.9630 
 338   0.0000      45.404101      1235.5084 

                    ********************************
                    * MULLIKEN POPULATION ANALYSIS *
                    ********************************

-----------------------
MULLIKEN ATOMIC CHARGES
-----------------------
   0 O :   -0.416398
   1 C :    0.150888
   2 C :    0.261319
   3 C :   -0.323716
   4 C :   -0.050143
   5 C :   -0.222334
   6 C :   -0.105549
   7 C :   -0.140756
   8 C :   -0.268890
   9 H :    0.075911
  10 H :    0.127433
  11 H :    0.134272
  12 H :    0.120088
  13 H :    0.104968
  14 H :    0.099510
  15 H :    0.100229
  16 H :    0.101109
  17 H :    0.126604
  18 H :    0.125455
Sum of atomic charges:   -0.0000000

--------------------------------
MULLIKEN REDUCED ORBITAL CHARGES
--------------------------------
  0 O s       :     3.838531  s :     3.838531
      pz      :     1.376043  p :     4.539270
      px      :     1.807610
      py      :     1.355617
      dz2     :     0.005108  d :     0.036441
      dxz     :     0.001352
      dyz     :     0.011871
      dx2y2   :     0.010427
      dxy     :     0.007683
      f0      :     0.000127  f :     0.002156
      f+1     :     0.000023
      f-1     :     0.000393
      f+2     :     0.000436
      f-2     :     0.000169
      f+3     :     0.000476
      f-3     :     0.000532
  1 C s       :     3.241787  s :     3.241787
      pz      :     0.682319  p :     2.392100
      px      :     0.912321
      py      :     0.797461
      dz2     :     0.014835  d :     0.198258
      dxz     :     0.022393
      dyz     :     0.041930
      dx2y2   :     0.032496
      dxy     :     0.086602
      f0      :     0.001295  f :     0.016966
      f+1     :     0.000508
      f-1     :     0.002970
      f+2     :     0.002244
      f-2     :     0.001943
      f+3     :     0.004608
      f-3     :     0.003400
  2 C s       :     2.933453  s :     2.933453
      pz      :     1.008298  p :     2.641565
      px      :     0.786374
      py      :     0.846893
      dz2     :     0.025125  d :     0.151781
      dxz     :     0.019448
      dyz     :     0.027382
      dx2y2   :     0.043700
      dxy     :     0.036127
      f0      :     0.001529  f :     0.011882
      f+1     :     0.001156
      f-1     :     0.001732
      f+2     :     0.001346
      f-2     :     0.001536
      f+3     :     0.002074
      f-3     :     0.002508
  3 C s       :     3.263326  s :     3.263326
      pz      :     0.975996  p :     2.963639
      px      :     1.089264
      py      :     0.898379
      dz2     :     0.019275  d :     0.088405
      dxz     :     0.014795
      dyz     :     0.021248
      dx2y2   :     0.017816
      dxy     :     0.015271
      f0      :     0.001521  f :     0.008346
      f+1     :     0.000992
      f-1     :     0.001448
      f+2     :     0.001313
      f-2     :     0.000903
      f+3     :     0.000844
      f-3     :     0.001325
  4 C s       :     3.135742  s :     3.135742
      pz      :     0.835527  p :     2.784931
      px      :     0.948283
      py      :     1.001120
      dz2     :     0.026572  d :     0.119190
      dxz     :     0.027344
      dyz     :     0.023402
      dx2y2   :     0.025187
      dxy     :     0.016685
      f0      :     0.001947  f :     0.010280
      f+1     :     0.001876
      f-1     :     0.001713
      f+2     :     0.001953
      f-2     :     0.001007
      f+3     :     0.001024
      f-3     :     0.000760
  5 C s       :     3.184649  s :     3.184649
      pz      :     1.054273  p :     2.923050
      px      :     0.906603
      py      :     0.962174
      dz2     :     0.017797  d :     0.108060
      dxz     :     0.016748
      dyz     :     0.020353
      dx2y2   :     0.025197
      dxy     :     0.027967
      f0      :     0.001079  f :     0.006575
      f+1     :     0.000536
      f-1     :     0.000739
      f+2     :     0.000689
      f-2     :     0.000897
      f+3     :     0.001457
      f-3     :     0.001178
  6 C s       :     3.108961  s :     3.108961
      pz      :     0.938561  p :     2.884693
      px      :     1.014071
      py      :     0.932061
      dz2     :     0.023299  d :     0.105491
      dxz     :     0.011101
      dyz     :     0.032147
      dx2y2   :     0.022532
      dxy     :     0.016411
      f0      :     0.001024  f :     0.006405
      f+1     :     0.000729
      f-1     :     0.001493
      f+2     :     0.000420
      f-2     :     0.000795
      f+3     :     0.001166
      f-3     :     0.000778
  7 C s       :     3.132418  s :     3.132418
      pz      :     0.936215  p :     2.893528
      px      :     0.987100
      py      :     0.970213
      dz2     :     0.028346  d :     0.106599
      dxz     :     0.022489
      dyz     :     0.019799
      dx2y2   :     0.013935
      dxy     :     0.022030
      f0      :     0.001182  f :     0.008212
      f+1     :     0.001506
      f-1     :     0.001095
      f+2     :     0.000906
      f-2     :     0.001584
      f+3     :     0.000758
      f-3     :     0.001181
  8 C s       :     3.228555  s :     3.228555
      pz      :     0.986164  p :     2.919573
      px      :     0.940911
      py      :     0.992498
      dz2     :     0.020885  d :     0.112224
      dxz     :     0.030238
      dyz     :     0.015906
      dx2y2   :     0.016523
      dxy     :     0.028672
      f0      :     0.000658  f :     0.008538
      f+1     :     0.001610
      f-1     :     0.000999
      f+2     :     0.000937
      f-2     :     0.001681
      f+3     :     0.001218
      f-3     :     0.001434
  9 H s       :     0.903795  s :     0.903795
      pz      :     0.003635  p :     0.020294
      px      :     0.010698
      py      :     0.005961
 10 H s       :     0.849297  s :     0.849297
      pz      :     0.004224  p :     0.023270
      px      :     0.013206
      py      :     0.005840
 11 H s       :     0.842401  s :     0.842401
      pz      :     0.008014  p :     0.023327
      px      :     0.009489
      py      :     0.005824
 12 H s       :     0.856210  s :     0.856210
      pz      :     0.009475  p :     0.023702
      px      :     0.009627
      py      :     0.004600
 13 H s       :     0.873046  s :     0.873046
      pz      :     0.013338  p :     0.021986
      px      :     0.003459
      py      :     0.005189
 14 H s       :     0.878402  s :     0.878402
      pz      :     0.006547  p :     0.022088
      px      :     0.006288
      py      :     0.009253
 15 H s       :     0.877679  s :     0.877679
      pz      :     0.009744  p :     0.022091
      px      :     0.004440
      py      :     0.007906
 16 H s       :     0.876848  s :     0.876848
      pz      :     0.004084  p :     0.022043
      px      :     0.014124
      py      :     0.003835
 17 H s       :     0.850117  s :     0.850117
      pz      :     0.005120  p :     0.023279
      px      :     0.010269
      py      :     0.007890
 18 H s       :     0.850852  s :     0.850852
      pz      :     0.013080  p :     0.023693
      px      :     0.003398
      py      :     0.007215


                     *******************************
                     * LOEWDIN POPULATION ANALYSIS *
                     *******************************

----------------------
LOEWDIN ATOMIC CHARGES
----------------------
   0 O :    0.055913
   1 C :   -0.205693
   2 C :   -0.196315
   3 C :   -0.144240
   4 C :   -0.151658
   5 C :   -0.205591
   6 C :   -0.222706
   7 C :   -0.145108
   8 C :   -0.112071
   9 H :    0.117948
  10 H :    0.126896
  11 H :    0.132963
  12 H :    0.140539
  13 H :    0.129562
  14 H :    0.133519
  15 H :    0.135643
  16 H :    0.129986
  17 H :    0.135251
  18 H :    0.145159

-------------------------------
LOEWDIN REDUCED ORBITAL CHARGES
-------------------------------
  0 O s       :     3.407505  s :     3.407505
      pz      :     1.317384  p :     4.460755
      px      :     1.655661
      py      :     1.487710
      dz2     :     0.007479  d :     0.070033
      dxz     :     0.002564
      dyz     :     0.017463
      dx2y2   :     0.021629
      dxy     :     0.020899
      f0      :     0.000438  f :     0.005794
      f+1     :     0.000075
      f-1     :     0.000712
      f+2     :     0.001052
      f-2     :     0.000502
      f+3     :     0.001603
      f-3     :     0.001412
  1 C s       :     2.809000  s :     2.809000
      pz      :     0.689245  p :     2.614767
      px      :     0.978655
      py      :     0.946867
      dz2     :     0.050454  d :     0.683850
      dxz     :     0.073170
      dyz     :     0.129323
      dx2y2   :     0.155754
      dxy     :     0.275149
      f0      :     0.006819  f :     0.098076
      f+1     :     0.002390
      f-1     :     0.014035
      f+2     :     0.015851
      f-2     :     0.009796
      f+3     :     0.031667
      f-3     :     0.017518
  2 C s       :     2.667931  s :     2.667931
      pz      :     0.966333  p :     2.885996
      px      :     0.992898
      py      :     0.926765
      dz2     :     0.094974  d :     0.577190
      dxz     :     0.078591
      dyz     :     0.104477
      dx2y2   :     0.146337
      dxy     :     0.152810
      f0      :     0.007980  f :     0.065198
      f+1     :     0.006251
      f-1     :     0.007450
      f+2     :     0.009746
      f-2     :     0.008174
      f+3     :     0.014259
      f-3     :     0.011338
  3 C s       :     2.765408  s :     2.765408
      pz      :     1.015556  p :     2.977659
      px      :     1.019789
      py      :     0.942314
      dz2     :     0.067244  d :     0.359771
      dxz     :     0.067580
      dyz     :     0.093459
      dx2y2   :     0.057189
      dxy     :     0.074298
      f0      :     0.008495  f :     0.041402
      f+1     :     0.004758
      f-1     :     0.007109
      f+2     :     0.008159
      f-2     :     0.003352
      f+3     :     0.005091
      f-3     :     0.004437
  4 C s       :     2.712915  s :     2.712915
      pz      :     0.948603  p :     2.897151
      px      :     0.991352
      py      :     0.957197
      dz2     :     0.103625  d :     0.486208
      dxz     :     0.149816
      dyz     :     0.083368
      dx2y2   :     0.083216
      dxy     :     0.066184
      f0      :     0.011440  f :     0.055382
      f+1     :     0.009794
      f-1     :     0.010081
      f+2     :     0.007454
      f-2     :     0.006094
      f+3     :     0.005111
      f-3     :     0.005407
  5 C s       :     2.767963  s :     2.767963
      pz      :     1.007153  p :     3.001313
      px      :     0.990573
      py      :     1.003587
      dz2     :     0.068660  d :     0.398144
      dxz     :     0.054808
      dyz     :     0.076269
      dx2y2   :     0.090297
      dxy     :     0.108110
      f0      :     0.004879  f :     0.038170
      f+1     :     0.003990
      f-1     :     0.002977
      f+2     :     0.004709
      f-2     :     0.006936
      f+3     :     0.006358
      f-3     :     0.008321
  6 C s       :     2.766306  s :     2.766306
      pz      :     1.009050  p :     3.017466
      px      :     0.998699
      py      :     1.009717
      dz2     :     0.084098  d :     0.400864
      dxz     :     0.048700
      dyz     :     0.118501
      dx2y2   :     0.091285
      dxy     :     0.058279
      f0      :     0.006271  f :     0.038071
      f+1     :     0.005649
      f-1     :     0.005717
      f+2     :     0.003795
      f-2     :     0.006556
      f+3     :     0.004629
      f-3     :     0.005453
  7 C s       :     2.777116  s :     2.777116
      pz      :     0.993753  p :     2.930856
      px      :     1.031507
      py      :     0.905596
      dz2     :     0.107415  d :     0.396349
      dxz     :     0.102167
      dyz     :     0.066055
      dx2y2   :     0.043021
      dxy     :     0.077691
      f0      :     0.006414  f :     0.040787
      f+1     :     0.009739
      f-1     :     0.003886
      f+2     :     0.006085
      f-2     :     0.006229
      f+3     :     0.003131
      f-3     :     0.005303
  8 C s       :     2.761366  s :     2.761366
      pz      :     0.980456  p :     2.912735
      px      :     1.024364
      py      :     0.907915
      dz2     :     0.085093  d :     0.396429
      dxz     :     0.092032
      dyz     :     0.053149
      dx2y2   :     0.078094
      dxy     :     0.088061
      f0      :     0.003097  f :     0.041542
      f+1     :     0.010565
      f-1     :     0.003447
      f+2     :     0.005704
      f-2     :     0.006883
      f+3     :     0.005572
      f-3     :     0.006274
  9 H s       :     0.830081  s :     0.830081
      pz      :     0.010026  p :     0.051971
      px      :     0.026157
      py      :     0.015788
 10 H s       :     0.811091  s :     0.811091
      pz      :     0.013062  p :     0.062013
      px      :     0.033456
      py      :     0.015496
 11 H s       :     0.805006  s :     0.805006
      pz      :     0.020490  p :     0.062031
      px      :     0.026074
      py      :     0.015467
 12 H s       :     0.799499  s :     0.799499
      pz      :     0.021397  p :     0.059961
      px      :     0.024048
      py      :     0.014516
 13 H s       :     0.812782  s :     0.812782
      pz      :     0.031874  p :     0.057656
      px      :     0.011263
      py      :     0.014519
 14 H s       :     0.808931  s :     0.808931
      pz      :     0.018860  p :     0.057550
      px      :     0.016442
      py      :     0.022248
 15 H s       :     0.806944  s :     0.806944
      pz      :     0.022890  p :     0.057413
      px      :     0.014216
      py      :     0.020307
 16 H s       :     0.812694  s :     0.812694
      pz      :     0.012155  p :     0.057320
      px      :     0.032644
      py      :     0.012521
 17 H s       :     0.805782  s :     0.805782
      pz      :     0.014511  p :     0.058966
      px      :     0.024247
      py      :     0.020209
 18 H s       :     0.795237  s :     0.795237
      pz      :     0.030508  p :     0.059603
      px      :     0.010346
      py      :     0.018750


                      *****************************
                      * MAYER POPULATION ANALYSIS *
                      *****************************

  NA   - Mulliken gross atomic population
  ZA   - Total nuclear charge
  QA   - Mulliken gross atomic charge
  VA   - Mayer's total valence
  BVA  - Mayer's bonded valence
  FA   - Mayer's free valence

  ATOM       NA         ZA         QA         VA         BVA        FA
  0 O      8.4164     8.0000    -0.4164     2.0163     2.0163     0.0000
  1 C      5.8491     6.0000     0.1509     4.0240     4.0240     0.0000
  2 C      5.7387     6.0000     0.2613     3.4137     3.4137    -0.0000
  3 C      6.3237     6.0000    -0.3237     3.9674     3.9674     0.0000
  4 C      6.0501     6.0000    -0.0501     3.7774     3.7774    -0.0000
  5 C      6.2223     6.0000    -0.2223     3.9841     3.9841     0.0000
  6 C      6.1055     6.0000    -0.1055     3.8973     3.8973     0.0000
  7 C      6.1408     6.0000    -0.1408     3.8952     3.8952    -0.0000
  8 C      6.2689     6.0000    -0.2689     3.9590     3.9590    -0.0000
  9 H      0.9241     1.0000     0.0759     0.9640     0.9640     0.0000
 10 H      0.8726     1.0000     0.1274     0.9712     0.9712    -0.0000
 11 H      0.8657     1.0000     0.1343     0.9741     0.9741     0.0000
 12 H      0.8799     1.0000     0.1201     0.9508     0.9508    -0.0000
 13 H      0.8950     1.0000     0.1050     0.9766     0.9766     0.0000
 14 H      0.9005     1.0000     0.0995     0.9722     0.9722     0.0000
 15 H      0.8998     1.0000     0.1002     0.9707     0.9707     0.0000
 16 H      0.8989     1.0000     0.1011     0.9745     0.9745     0.0000
 17 H      0.8734     1.0000     0.1266     0.9700     0.9700     0.0000
 18 H      0.8745     1.0000     0.1255     0.9828     0.9828    -0.0000

  Mayer bond orders larger than 0.1
B(  0-O ,  1-C ) :   2.0320 B(  1-C ,  2-C ) :   0.9112 B(  1-C ,  9-H ) :   1.0217 
B(  2-C ,  3-C ) :   0.9020 B(  2-C ,  4-C ) :   0.8898 B(  2-C ,  8-C ) :   0.9336 
B(  3-C ,  4-C ) :   0.9848 B(  3-C , 10-H ) :   0.9767 B(  3-C , 11-H ) :   0.9684 
B(  4-C ,  5-C ) :   0.9348 B(  4-C , 12-H ) :   0.9723 B(  5-C ,  6-C ) :   0.9935 
B(  5-C , 13-H ) :   0.9982 B(  5-C , 14-H ) :   0.9886 B(  6-C ,  7-C ) :   0.9604 
B(  6-C , 15-H ) :   0.9688 B(  6-C , 16-H ) :   0.9992 B(  7-C ,  8-C ) :   1.9891 
B(  7-C , 17-H ) :   0.9739 B(  8-C , 18-H ) :   0.9729 

-------
TIMINGS
-------

Total SCF time: 0 days 0 hours 2 min 47 sec 

Total time                  ....     167.379 sec
Sum of individual times     ....     171.949 sec  (102.7%)

Fock matrix formation       ....     165.681 sec  ( 99.0%)
Diagonalization             ....       0.742 sec  (  0.4%)
Density matrix formation    ....       0.049 sec  (  0.0%)
Population analysis         ....       0.166 sec  (  0.1%)
Initial guess               ....       3.192 sec  (  1.9%)
Orbital Transformation      ....       0.000 sec  (  0.0%)
Orbital Orthonormalization  ....       0.000 sec  (  0.0%)
DIIS solution               ....       0.276 sec  (  0.2%)
SOSCF solution              ....       0.322 sec  (  0.2%)

   <<< Auxbasis replaced with dsgdb9nsd_048834.AUXC.tmp (Dim=834) >>> 


------------------------------------------------------------------------------
                              ORCA MP2 CALCULATION
------------------------------------------------------------------------------

Freezing NCore=18 chemical core electrons

   <<< Use J-auxbasis for calculation of Separable RI-J derivative contributions dsgdb9nsd_048834.AUXJ.tmp (Dim=857) >>> 


---------------------
RI-MP2 ENERGY+DENSITY
---------------------
Dimension of the basis                    ...  339
Memory devoted to MP2                     ... 2000 MB   
Data format for buffers                   ... DOUBLE
Compression type for matrix containers    ... UNCOMPRESSED
Overall scaling of the MP2 energy         ...   1.000e+00 Eh
Calculating two index integrals           ... done (    0.018 sec)
Cholesky decomposition of V**-1           ... done (    0.125 sec)

-----------------
RI-TRANSFORMATION (AUX index driven)
-----------------

Dimension of the orbital-basis         ... 339
Dimension of the aux-basis             ... 834
Transformation of internal MOs         ...    0-  32
Transformation of internal/external MOs...    0-  32 to   33- 338
Number Format for Storage              ... Double (8 Byte)
Integral mode                          ... Direct

First Phase: integral generation and transformation of MO indices
  Aux angular momentum 0               ... done (    0.927 sec)
  Aux angular momentum 1               ... done (    1.294 sec)
  Aux angular momentum 2               ... done (    1.358 sec)
  Aux angular momentum 3               ... done (    1.016 sec)
  Aux angular momentum 4               ... done (    0.456 sec)
Closing buffer VIJ ( 0.00 GB; CompressionRatio= 1.94)
Closing buffer VIA ( 0.06 GB; CompressionRatio= 1.00)
  Phase 1 completed in     5.152 sec
Second Phase: sorting and transformation of aux index

IJ-Transformation
Memory available                       ... 1986 MB 
Max. # MO pairs treated in a batch     ... 33    
# of internal orbitals                 ... 33
# batches for internal orbitals        ... 1
Closing buffer IJV ( 0.00 GB; CompressionRatio= 1.00)
(ij|v) transformation done in     0.200 sec

IA-Transformation
Memory available                       ... 1986 MB 
Max. # MO pairs treated in a batch     ... 33    
# of internal orbitals                 ... 33
# batches for internal orbitals        ... 1
Closing buffer IAV ( 0.06 GB; CompressionRatio= 1.00)
(ia|v) transformation done in     1.454 sec

  Phase 2 completed in     1.673 sec
RI-Integral transformation completed in     6.826 sec
Opening buffers                              ... done
Frozen core precalculation                   ... done

Starting loop over batches of integrals:

Operator 0  - window                       ... (  9- 32)x( 33-338)
Operator 0  - Memory available             ...  2000 MB
Operator 0  - Memory needed per MO         ...   3.9 MB
Operator 0  - Number of orbitals per batch ... 24
Operator 0  - Number of batches            ... 1

OPERATOR  0   PASS   0:  MOs     9 ...   32
  Reading integrals       ... ok
  Internal MO  11
  Internal MO  14
  Internal MO  17
  Internal MO  20
  Internal MO  23
  Internal MO  26
  Internal MO  29
  Internal MO  32
Time spent in pair loops =    37.047 sec
Deleting buffer (Ka|jb)[aa] ...done

-----------------------------------------------
 RI-MP2 CORRELATION ENERGY:     -1.503935469 Eh
-----------------------------------------------


---------------------
MP2 DENSITY FORMATION
---------------------

Completing the external part of the density      ... done
Storing the unrelaxed density                    ... done

Calculating G(D)                                 ... done
Completing the Lagrangian                        ... done
Solving the Z-vector equations                   ... 

------------------------------------------------------------------------------
                           ORCA CP-SCF CALCULATION
------------------------------------------------------------------------------

Input orbitals are from        ... dsgdb9nsd_048834.gbw
Input Perturbation             ... dsgdb9nsd_048834.pin.tmp
Wavefunction output            ... dsgdb9nsd_048834.pout.tmp
Perturbation mode              ... Real perturbation
Solver                         ... POPLE
Max. number of iterations      ... 128
Convergence tolerance          ... 1.000e-08
Integral handling              ... Direct
Number of perturbations        ... 1
Number of operators            ... 1
Orbital ranges used for CP-SCF:
 Operator 0:  Orbitals   0... 32  to  33...338
Variables per vector in CP-SCF ... 10098
Number of vectors sought       ... 1
     CP-SCF ITERATION   0: 
     CP-SCF ITERATION   1:      0.001581393
     CP-SCF ITERATION   2:      0.000292963
     CP-SCF ITERATION   3:      0.000021645
     CP-SCF ITERATION   4:      0.000002136
     CP-SCF ITERATION   5:      0.000000195
     CP-SCF ITERATION   6:      0.000000021
     CP-SCF ITERATION   7:      0.000000003
done
Finalizing the relaxed density                   ... done
Transforming P to the AO basis                   ... done
Storing the relaxed density                      ... done

                *********************************************
                * UNRELAXED MP2 DENSITY POPULATION ANALYSIS *
                *********************************************

------------------------------------------------------------------------------
                           ORCA POPULATION ANALYSIS
------------------------------------------------------------------------------
Input electron density              ... dsgdb9nsd_048834.pmp2ur
BaseName (.gbw .S,...)              ... dsgdb9nsd_048834

                    ********************************
                    * MULLIKEN POPULATION ANALYSIS *
                    ********************************

-----------------------
MULLIKEN ATOMIC CHARGES
-----------------------
   0 O :   -0.391826
   1 C :    0.125809
   2 C :    0.260731
   3 C :   -0.331155
   4 C :   -0.054263
   5 C :   -0.230843
   6 C :   -0.114076
   7 C :   -0.143895
   8 C :   -0.273152
   9 H :    0.077431
  10 H :    0.130986
  11 H :    0.138001
  12 H :    0.124624
  13 H :    0.108906
  14 H :    0.103583
  15 H :    0.104179
  16 H :    0.104924
  17 H :    0.130596
  18 H :    0.129441
Sum of atomic charges:    0.0000000

--------------------------------
MULLIKEN REDUCED ORBITAL CHARGES
--------------------------------
  0 O s       :     3.832128  s :     3.832128
      pz      :     1.359679  p :     4.492528
      px      :     1.789619
      py      :     1.343230
      dz2     :     0.010120  d :     0.062368
      dxz     :     0.006839
      dyz     :     0.016604
      dx2y2   :     0.015515
      dxy     :     0.013289
      f0      :     0.000481  f :     0.004803
      f+1     :     0.000364
      f-1     :     0.000775
      f+2     :     0.000805
      f-2     :     0.000552
      f+3     :     0.000895
      f-3     :     0.000930
  1 C s       :     3.239913  s :     3.239913
      pz      :     0.692847  p :     2.400443
      px      :     0.909748
      py      :     0.797848
      dz2     :     0.017767  d :     0.213705
      dxz     :     0.026335
      dyz     :     0.044105
      dx2y2   :     0.036027
      dxy     :     0.089471
      f0      :     0.001627  f :     0.020130
      f+1     :     0.000897
      f-1     :     0.003236
      f+2     :     0.002661
      f-2     :     0.002468
      f+3     :     0.005304
      f-3     :     0.003937
  2 C s       :     2.930528  s :     2.930528
      pz      :     0.996532  p :     2.615715
      px      :     0.781072
      py      :     0.838111
      dz2     :     0.030116  d :     0.176779
      dxz     :     0.025802
      dyz     :     0.032225
      dx2y2   :     0.047980
      dxy     :     0.040657
      f0      :     0.002086  f :     0.016248
      f+1     :     0.001730
      f-1     :     0.002249
      f+2     :     0.001993
      f-2     :     0.002181
      f+3     :     0.002943
      f-3     :     0.003066
  3 C s       :     3.261691  s :     3.261691
      pz      :     0.969336  p :     2.945909
      px      :     1.082966
      py      :     0.893607
      dz2     :     0.022935  d :     0.111494
      dxz     :     0.020047
      dyz     :     0.026196
      dx2y2   :     0.021532
      dxy     :     0.020784
      f0      :     0.002030  f :     0.012060
      f+1     :     0.001551
      f-1     :     0.001931
      f+2     :     0.001859
      f-2     :     0.001432
      f+3     :     0.001448
      f-3     :     0.001809
  4 C s       :     3.132597  s :     3.132597
      pz      :     0.831065  p :     2.765939
      px      :     0.941495
      py      :     0.993379
      dz2     :     0.031041  d :     0.141477
      dxz     :     0.031946
      dyz     :     0.026649
      dx2y2   :     0.029484
      dxy     :     0.022358
      f0      :     0.002535  f :     0.014250
      f+1     :     0.002550
      f-1     :     0.002193
      f+2     :     0.002488
      f-2     :     0.001630
      f+3     :     0.001527
      f-3     :     0.001326
  5 C s       :     3.182758  s :     3.182758
      pz      :     1.048326  p :     2.905225
      px      :     0.901014
      py      :     0.955885
      dz2     :     0.022875  d :     0.132409
      dxz     :     0.021826
      dyz     :     0.026009
      dx2y2   :     0.029410
      dxy     :     0.032288
      f0      :     0.001604  f :     0.010451
      f+1     :     0.001126
      f-1     :     0.001269
      f+2     :     0.001222
      f-2     :     0.001465
      f+3     :     0.001941
      f-3     :     0.001824
  6 C s       :     3.106760  s :     3.106760
      pz      :     0.932642  p :     2.866710
      px      :     1.008058
      py      :     0.926009
      dz2     :     0.027704  d :     0.130287
      dxz     :     0.017167
      dyz     :     0.036480
      dx2y2   :     0.027793
      dxy     :     0.021143
      f0      :     0.001631  f :     0.010319
      f+1     :     0.001276
      f-1     :     0.001983
      f+2     :     0.001017
      f-2     :     0.001383
      f+3     :     0.001650
      f-3     :     0.001380
  7 C s       :     3.130239  s :     3.130239
      pz      :     0.929293  p :     2.873331
      px      :     0.980485
      py      :     0.963552
      dz2     :     0.032658  d :     0.128463
      dxz     :     0.026697
      dyz     :     0.023966
      dx2y2   :     0.018536
      dxy     :     0.026606
      f0      :     0.001730  f :     0.011863
      f+1     :     0.002168
      f-1     :     0.001533
      f+2     :     0.001396
      f-2     :     0.002109
      f+3     :     0.001269
      f-3     :     0.001659
  8 C s       :     3.228186  s :     3.228186
      pz      :     0.980338  p :     2.899066
      px      :     0.934576
      py      :     0.984151
      dz2     :     0.025868  d :     0.133669
      dxz     :     0.033632
      dyz     :     0.020906
      dx2y2   :     0.020877
      dxy     :     0.032387
      f0      :     0.001223  f :     0.012232
      f+1     :     0.002268
      f-1     :     0.001460
      f+2     :     0.001433
      f-2     :     0.002189
      f+3     :     0.001754
      f-3     :     0.001905
  9 H s       :     0.899012  s :     0.899012
      pz      :     0.004894  p :     0.023557
      px      :     0.011589
      py      :     0.007074
 10 H s       :     0.842734  s :     0.842734
      pz      :     0.005321  p :     0.026280
      px      :     0.014073
      py      :     0.006886
 11 H s       :     0.835718  s :     0.835718
      pz      :     0.008979  p :     0.026281
      px      :     0.010437
      py      :     0.006866
 12 H s       :     0.848602  s :     0.848602
      pz      :     0.010413  p :     0.026774
      px      :     0.010625
      py      :     0.005736
 13 H s       :     0.865935  s :     0.865935
      pz      :     0.014267  p :     0.025159
      px      :     0.004605
      py      :     0.006287
 14 H s       :     0.871171  s :     0.871171
      pz      :     0.007634  p :     0.025247
      px      :     0.007364
      py      :     0.010249
 15 H s       :     0.870625  s :     0.870625
      pz      :     0.010730  p :     0.025197
      px      :     0.005543
      py      :     0.008924
 16 H s       :     0.869889  s :     0.869889
      pz      :     0.005199  p :     0.025187
      px      :     0.015028
      py      :     0.004959
 17 H s       :     0.843053  s :     0.843053
      pz      :     0.006203  p :     0.026351
      px      :     0.011223
      py      :     0.008925
 18 H s       :     0.843840  s :     0.843840
      pz      :     0.013962  p :     0.026719
      px      :     0.004514
      py      :     0.008243


                     *******************************
                     * LOEWDIN POPULATION ANALYSIS *
                     *******************************

----------------------
LOEWDIN ATOMIC CHARGES
----------------------
   0 O :    0.072621
   1 C :   -0.220492
   2 C :   -0.197116
   3 C :   -0.149286
   4 C :   -0.153908
   5 C :   -0.209028
   6 C :   -0.226181
   7 C :   -0.147108
   8 C :   -0.113923
   9 H :    0.118431
  10 H :    0.128850
  11 H :    0.135044
  12 H :    0.142385
  13 H :    0.131351
  14 H :    0.135235
  15 H :    0.137452
  16 H :    0.131749
  17 H :    0.137001
  18 H :    0.146924

-------------------------------
LOEWDIN REDUCED ORBITAL CHARGES
-------------------------------
  0 O s       :     3.402914  s :     3.402914
      pz      :     1.302130  p :     4.416034
      px      :     1.640315
      py      :     1.473589
      dz2     :     0.013066  d :     0.099366
      dxz     :     0.008090
      dyz     :     0.023491
      dx2y2   :     0.028020
      dxy     :     0.026698
      f0      :     0.000864  f :     0.009064
      f+1     :     0.000421
      f-1     :     0.001227
      f+2     :     0.001556
      f-2     :     0.000927
      f+3     :     0.002108
      f-3     :     0.001960
  1 C s       :     2.807161  s :     2.807161
      pz      :     0.696574  p :     2.612747
      px      :     0.972519
      py      :     0.943654
      dz2     :     0.054327  d :     0.696653
      dxz     :     0.076305
      dyz     :     0.131006
      dx2y2   :     0.159102
      dxy     :     0.275913
      f0      :     0.007516  f :     0.103931
      f+1     :     0.003029
      f-1     :     0.014673
      f+2     :     0.016541
      f-2     :     0.010682
      f+3     :     0.032345
      f-3     :     0.019145
  2 C s       :     2.666906  s :     2.666906
      pz      :     0.954677  p :     2.854154
      px      :     0.982448
      py      :     0.917029
      dz2     :     0.100318  d :     0.603346
      dxz     :     0.084492
      dyz     :     0.110492
      dx2y2   :     0.150880
      dxy     :     0.157164
      f0      :     0.008796  f :     0.072709
      f+1     :     0.007136
      f-1     :     0.008596
      f+2     :     0.010748
      f-2     :     0.009229
      f+3     :     0.015392
      f-3     :     0.012813
  3 C s       :     2.764092  s :     2.764092
      pz      :     1.005798  p :     2.951796
      px      :     1.011985
      py      :     0.934014
      dz2     :     0.073495  d :     0.386197
      dxz     :     0.072886
      dyz     :     0.097220
      dx2y2   :     0.063330
      dxy     :     0.079266
      f0      :     0.009323  f :     0.047201
      f+1     :     0.005642
      f-1     :     0.008044
      f+2     :     0.008756
      f-2     :     0.004116
      f+3     :     0.005835
      f-3     :     0.005484
  4 C s       :     2.711599  s :     2.711599
      pz      :     0.940136  p :     2.869813
      px      :     0.981768
      py      :     0.947909
      dz2     :     0.107970  d :     0.510690
      dxz     :     0.153696
      dyz     :     0.089395
      dx2y2   :     0.088525
      dxy     :     0.071104
      f0      :     0.012256  f :     0.061806
      f+1     :     0.010802
      f-1     :     0.011085
      f+2     :     0.008639
      f-2     :     0.006992
      f+3     :     0.005926
      f-3     :     0.006106
  5 C s       :     2.766288  s :     2.766288
      pz      :     0.999532  p :     2.975119
      px      :     0.981068
      py      :     0.994520
      dz2     :     0.074208  d :     0.423467
      dxz     :     0.060146
      dyz     :     0.081290
      dx2y2   :     0.095164
      dxy     :     0.112660
      f0      :     0.005742  f :     0.044155
      f+1     :     0.004761
      f-1     :     0.003847
      f+2     :     0.005514
      f-2     :     0.007678
      f+3     :     0.007482
      f-3     :     0.009130
  6 C s       :     2.764682  s :     2.764682
      pz      :     1.000022  p :     2.990977
      px      :     0.990780
      py      :     1.000175
      dz2     :     0.089476  d :     0.426389
      dxz     :     0.054035
      dyz     :     0.122924
      dx2y2   :     0.096080
      dxy     :     0.063874
      f0      :     0.007126  f :     0.044133
      f+1     :     0.006407
      f-1     :     0.006879
      f+2     :     0.004615
      f-2     :     0.007301
      f+3     :     0.005607
      f-3     :     0.006197
  7 C s       :     2.774491  s :     2.774491
      pz      :     0.984016  p :     2.904075
      px      :     1.021965
      py      :     0.898094
      dz2     :     0.111393  d :     0.421365
      dxz     :     0.107341
      dyz     :     0.071078
      dx2y2   :     0.049054
      dxy     :     0.082499
      f0      :     0.007393  f :     0.047177
      f+1     :     0.010689
      f-1     :     0.004738
      f+2     :     0.007133
      f-2     :     0.007190
      f+3     :     0.003961
      f-3     :     0.006073
  8 C s       :     2.758928  s :     2.758928
      pz      :     0.971811  p :     2.884874
      px      :     1.013479
      py      :     0.899584
      dz2     :     0.089809  d :     0.421988
      dxz     :     0.097339
      dyz     :     0.058685
      dx2y2   :     0.083260
      dxy     :     0.092895
      f0      :     0.004024  f :     0.048133
      f+1     :     0.011498
      f-1     :     0.004164
      f+2     :     0.006781
      f-2     :     0.007865
      f+3     :     0.006550
      f-3     :     0.007251
  9 H s       :     0.823813  s :     0.823813
      pz      :     0.011763  p :     0.057756
      px      :     0.028199
      py      :     0.017795
 10 H s       :     0.803850  s :     0.803850
      pz      :     0.014398  p :     0.067300
      px      :     0.035874
      py      :     0.017028
 11 H s       :     0.797719  s :     0.797719
      pz      :     0.022193  p :     0.067237
      px      :     0.028028
      py      :     0.017015
 12 H s       :     0.792120  s :     0.792120
      pz      :     0.023438  p :     0.065495
      px      :     0.026208
      py      :     0.015848
 13 H s       :     0.805493  s :     0.805493
      pz      :     0.034482  p :     0.063156
      px      :     0.012628
      py      :     0.016046
 14 H s       :     0.801587  s :     0.801587
      pz      :     0.020622  p :     0.063178
      px      :     0.018217
      py      :     0.024340
 15 H s       :     0.799637  s :     0.799637
      pz      :     0.025067  p :     0.062911
      px      :     0.015645
      py      :     0.022199
 16 H s       :     0.805436  s :     0.805436
      pz      :     0.013569  p :     0.062815
      px      :     0.035347
      py      :     0.013899
 17 H s       :     0.798752  s :     0.798752
      pz      :     0.016004  p :     0.064247
      px      :     0.026322
      py      :     0.021920
 18 H s       :     0.788277  s :     0.788277
      pz      :     0.032770  p :     0.064799
      px      :     0.011696
      py      :     0.020333


                      *****************************
                      * MAYER POPULATION ANALYSIS *
                      *****************************

  NA   - Mulliken gross atomic population
  ZA   - Total nuclear charge
  QA   - Mulliken gross atomic charge
  VA   - Mayer's total valence
  BVA  - Mayer's bonded valence
  FA   - Mayer's free valence

  ATOM       NA         ZA         QA         VA         BVA        FA
  0 O      8.3918     8.0000    -0.3918     2.3128     1.8571     0.4557
  1 C      5.8742     6.0000     0.1258     4.1134     3.7675     0.3459
  2 C      5.7393     6.0000     0.2607     3.5026     3.1466     0.3560
  3 C      6.3312     6.0000    -0.3312     4.0807     3.7334     0.3472
  4 C      6.0543     6.0000    -0.0543     3.8744     3.5238     0.3506
  5 C      6.2308     6.0000    -0.2308     4.0965     3.7715     0.3250
  6 C      6.1141     6.0000    -0.1141     4.0049     3.6895     0.3154
  7 C      6.1439     6.0000    -0.1439     4.0019     3.6309     0.3711
  8 C      6.2732     6.0000    -0.2732     4.0742     3.6931     0.3812
  9 H      0.9226     1.0000     0.0774     0.9752     0.9199     0.0553
 10 H      0.8690     1.0000     0.1310     0.9791     0.9293     0.0498
 11 H      0.8620     1.0000     0.1380     0.9814     0.9317     0.0496
 12 H      0.8754     1.0000     0.1246     0.9590     0.9086     0.0504
 13 H      0.8911     1.0000     0.1089     0.9851     0.9344     0.0507
 14 H      0.8964     1.0000     0.1036     0.9808     0.9294     0.0514
 15 H      0.8958     1.0000     0.1042     0.9795     0.9274     0.0521
 16 H      0.8951     1.0000     0.1049     0.9832     0.9320     0.0512
 17 H      0.8694     1.0000     0.1306     0.9775     0.9288     0.0488
 18 H      0.8706     1.0000     0.1294     0.9903     0.9410     0.0493

  Mayer bond orders larger than 0.1
B(  0-O ,  1-C ) :   1.8816 B(  1-C ,  2-C ) :   0.8542 B(  1-C ,  9-H ) :   0.9812 
B(  2-C ,  3-C ) :   0.8303 B(  2-C ,  4-C ) :   0.8167 B(  2-C ,  8-C ) :   0.8750 
B(  3-C ,  4-C ) :   0.9138 B(  3-C , 10-H ) :   0.9376 B(  3-C , 11-H ) :   0.9290 
B(  4-C ,  5-C ) :   0.8753 B(  4-C , 12-H ) :   0.9325 B(  5-C ,  6-C ) :   0.9309 
B(  5-C , 13-H ) :   0.9579 B(  5-C , 14-H ) :   0.9474 B(  6-C ,  7-C ) :   0.9021 
B(  6-C , 15-H ) :   0.9282 B(  6-C , 16-H ) :   0.9583 B(  7-C ,  8-C ) :   1.8303 
B(  7-C , 17-H ) :   0.9353 B(  8-C , 18-H ) :   0.9346 


                *******************************************
                * RELAXED MP2 DENSITY POPULATION ANALYSIS *
                *******************************************

------------------------------------------------------------------------------
                           ORCA POPULATION ANALYSIS
[...]
      f+1     :     0.001618
      f-1     :     0.002110
      f+2     :     0.001924
      f-2     :     0.002150
      f+3     :     0.003044
      f-3     :     0.002664
  3 C s       :     3.261312  s :     3.261312
      pz      :     0.971666  p :     2.957190
      px      :     1.085407
      py      :     0.900117
      dz2     :     0.018528  d :     0.098882
      dxz     :     0.018239
      dyz     :     0.025458
      dx2y2   :     0.017436
      dxy     :     0.019222
      f0      :     0.001909  f :     0.011513
      f+1     :     0.001468
      f-1     :     0.001840
      f+2     :     0.001795
      f-2     :     0.001418
      f+3     :     0.001440
      f-3     :     0.001642
  4 C s       :     3.169984  s :     3.169984
      pz      :     0.831302  p :     2.780613
      px      :     0.944340
      py      :     1.004970
      dz2     :     0.029518  d :     0.128812
      dxz     :     0.029510
      dyz     :     0.021932
      dx2y2   :     0.024577
      dxy     :     0.023275
      f0      :     0.002429  f :     0.013582
      f+1     :     0.002491
      f-1     :     0.002047
      f+2     :     0.002279
      f-2     :     0.001615
      f+3     :     0.001404
      f-3     :     0.001317
  5 C s       :     3.196488  s :     3.196488
      pz      :     1.059976  p :     2.939673
      px      :     0.911802
      py      :     0.967895
      dz2     :     0.019309  d :     0.120684
      dxz     :     0.020059
      dyz     :     0.024765
      dx2y2   :     0.026786
      dxy     :     0.029765
      f0      :     0.001522  f :     0.009909
      f+1     :     0.001102
      f-1     :     0.001173
      f+2     :     0.001145
      f-2     :     0.001427
      f+3     :     0.001697
      f-3     :     0.001843
  6 C s       :     3.138528  s :     3.138528
      pz      :     0.958100  p :     2.916596
      px      :     1.022085
      py      :     0.936411
      dz2     :     0.023562  d :     0.117892
      dxz     :     0.017038
      dyz     :     0.033314
      dx2y2   :     0.025752
      dxy     :     0.018226
      f0      :     0.001604  f :     0.009794
      f+1     :     0.001234
      f-1     :     0.001751
      f+2     :     0.000996
      f-2     :     0.001363
      f+3     :     0.001470
      f-3     :     0.001376
  7 C s       :     3.154831  s :     3.154831
      pz      :     0.920453  p :     2.852456
      px      :     0.967980
      py      :     0.964023
      dz2     :     0.029584  d :     0.114053
      dxz     :     0.025137
      dyz     :     0.020230
      dx2y2   :     0.016357
      dxy     :     0.022744
      f0      :     0.001642  f :     0.011177
      f+1     :     0.002137
      f-1     :     0.001361
      f+2     :     0.001317
      f-2     :     0.001961
      f+3     :     0.001188
      f-3     :     0.001571
  8 C s       :     3.230022  s :     3.230022
      pz      :     0.977121  p :     2.888079
      px      :     0.933999
      py      :     0.976959
      dz2     :     0.023497  d :     0.117700
      dxz     :     0.028905
      dyz     :     0.018039
      dx2y2   :     0.019467
      dxy     :     0.027793
      f0      :     0.001132  f :     0.011537
      f+1     :     0.002196
      f-1     :     0.001372
      f+2     :     0.001336
      f-2     :     0.002020
      f+3     :     0.001706
      f-3     :     0.001773
  9 H s       :     0.909893  s :     0.909893
      pz      :     0.004982  p :     0.022302
      px      :     0.010509
      py      :     0.006811
 10 H s       :     0.831159  s :     0.831159
      pz      :     0.005544  p :     0.025334
      px      :     0.012936
      py      :     0.006854
 11 H s       :     0.825608  s :     0.825608
      pz      :     0.008651  p :     0.025251
      px      :     0.009713
      py      :     0.006887
 12 H s       :     0.839108  s :     0.839108
      pz      :     0.009718  p :     0.025735
      px      :     0.009966
      py      :     0.006051
 13 H s       :     0.846971  s :     0.846971
      pz      :     0.013021  p :     0.024208
      px      :     0.004840
      py      :     0.006347
 14 H s       :     0.851836  s :     0.851836
      pz      :     0.007372  p :     0.024196
      px      :     0.007164
      py      :     0.009660
 15 H s       :     0.849136  s :     0.849136
      pz      :     0.010036  p :     0.024190
      px      :     0.005649
      py      :     0.008504
 16 H s       :     0.849480  s :     0.849480
      pz      :     0.005408  p :     0.024222
      px      :     0.013647
      py      :     0.005167
 17 H s       :     0.847433  s :     0.847433
      pz      :     0.006114  p :     0.025076
      px      :     0.010469
      py      :     0.008493
 18 H s       :     0.845672  s :     0.845672
      pz      :     0.012754  p :     0.025313
      px      :     0.004673
      py      :     0.007886


                     *******************************
                     * LOEWDIN POPULATION ANALYSIS *
                     *******************************

----------------------
LOEWDIN ATOMIC CHARGES
----------------------
   0 O :    0.131613
   1 C :   -0.268423
   2 C :   -0.205720
   3 C :   -0.163440
   4 C :   -0.165801
   5 C :   -0.227821
   6 C :   -0.245593
   7 C :   -0.153984
   8 C :   -0.120579
   9 H :    0.117367
  10 H :    0.137293
  11 H :    0.142888
  12 H :    0.151219
  13 H :    0.141470
  14 H :    0.144621
  15 H :    0.148038
  16 H :    0.141800
  17 H :    0.142761
  18 H :    0.152291

-------------------------------
LOEWDIN REDUCED ORBITAL CHARGES
-------------------------------
  0 O s       :     3.404968  s :     3.404968
      pz      :     1.270147  p :     4.354566
      px      :     1.612830
      py      :     1.471589
      dz2     :     0.013269  d :     0.099642
      dxz     :     0.008153
      dyz     :     0.023764
      dx2y2   :     0.027270
      dxy     :     0.027186
      f0      :     0.000873  f :     0.009212
      f+1     :     0.000424
      f-1     :     0.001309
      f+2     :     0.001588
      f-2     :     0.000940
      f+3     :     0.002110
      f-3     :     0.001967
  1 C s       :     2.812736  s :     2.812736
      pz      :     0.750630  p :     2.669410
      px      :     0.974349
      py      :     0.944430
      dz2     :     0.051124  d :     0.687579
      dxz     :     0.075062
      dyz     :     0.123781
      dx2y2   :     0.159071
      dxy     :     0.278541
      f0      :     0.007282  f :     0.098698
      f+1     :     0.002959
      f-1     :     0.013729
      f+2     :     0.016345
      f-2     :     0.009633
      f+3     :     0.030498
      f-3     :     0.018252
  2 C s       :     2.676094  s :     2.676094
      pz      :     0.948857  p :     2.853235
      px      :     0.989086
      py      :     0.915292
      dz2     :     0.098913  d :     0.603664
      dxz     :     0.087785
      dyz     :     0.109814
      dx2y2   :     0.151482
      dxy     :     0.155671
      f0      :     0.008714  f :     0.072726
      f+1     :     0.007121
      f-1     :     0.008576
      f+2     :     0.010706
      f-2     :     0.009468
      f+3     :     0.015857
      f-3     :     0.012286
  3 C s       :     2.771165  s :     2.771165
      pz      :     1.009388  p :     2.969019
      px      :     1.021923
      py      :     0.937709
      dz2     :     0.070119  d :     0.376769
      dxz     :     0.072008
      dyz     :     0.095216
      dx2y2   :     0.059890
      dxy     :     0.079537
      f0      :     0.009148  f :     0.046487
      f+1     :     0.005598
      f-1     :     0.007979
      f+2     :     0.008373
      f-2     :     0.004088
      f+3     :     0.005937
      f-3     :     0.005365
  4 C s       :     2.718126  s :     2.718126
      pz      :     0.943156  p :     2.882005
      px      :     0.983133
      py      :     0.955717
      dz2     :     0.107660  d :     0.504519
      dxz     :     0.152928
      dyz     :     0.086379
      dx2y2   :     0.084648
      dxy     :     0.072903
      f0      :     0.011982  f :     0.061151
      f+1     :     0.010716
      f-1     :     0.011018
      f+2     :     0.008362
      f-2     :     0.007072
      f+3     :     0.005938
      f-3     :     0.006062
  5 C s       :     2.772160  s :     2.772160
      pz      :     1.011814  p :     2.998866
      px      :     0.986284
      py      :     1.000768
      dz2     :     0.069725  d :     0.413038
      dxz     :     0.059192
      dyz     :     0.079209
      dx2y2   :     0.093279
      dxy     :     0.111632
      f0      :     0.005598  f :     0.043757
      f+1     :     0.004787
      f-1     :     0.003732
      f+2     :     0.005473
      f-2     :     0.007599
      f+3     :     0.007287
      f-3     :     0.009281
  6 C s       :     2.770594  s :     2.770594
      pz      :     1.009137  p :     3.016073
      px      :     1.000918
      py      :     1.006018
      dz2     :     0.086090  d :     0.415072
      dxz     :     0.054477
      dyz     :     0.119352
      dx2y2   :     0.093800
      dxy     :     0.061352
      f0      :     0.007231  f :     0.043854
      f+1     :     0.006429
      f-1     :     0.006627
      f+2     :     0.004596
      f-2     :     0.007320
      f+3     :     0.005445
      f-3     :     0.006205
  7 C s       :     2.779675  s :     2.779675
      pz      :     0.985427  p :     2.914108
      px      :     1.023515
      py      :     0.905165
      dz2     :     0.109719  d :     0.413135
      dxz     :     0.107248
      dyz     :     0.068427
      dx2y2   :     0.048679
      dxy     :     0.079062
      f0      :     0.007253  f :     0.047066
      f+1     :     0.010806
      f-1     :     0.004703
      f+2     :     0.007135
      f-2     :     0.007089
      f+3     :     0.004010
      f-3     :     0.006069
  8 C s       :     2.764670  s :     2.764670
      pz      :     0.975888  p :     2.894794
      px      :     1.012721
      py      :     0.906185
      dz2     :     0.087792  d :     0.413146
      dxz     :     0.096271
      dyz     :     0.055979
      dx2y2   :     0.083735
      dxy     :     0.089369
      f0      :     0.003963  f :     0.047969
      f+1     :     0.011515
      f-1     :     0.004018
      f+2     :     0.006839
      f-2     :     0.007830
      f+3     :     0.006562
      f-3     :     0.007241
  9 H s       :     0.823298  s :     0.823298
      pz      :     0.012815  p :     0.059335
      px      :     0.027871
      py      :     0.018649
 10 H s       :     0.794432  s :     0.794432
      pz      :     0.014964  p :     0.068275
      px      :     0.035910
      py      :     0.017401
 11 H s       :     0.789120  s :     0.789120
      pz      :     0.022478  p :     0.067991
      px      :     0.027995
      py      :     0.017518
 12 H s       :     0.782160  s :     0.782160
      pz      :     0.023609  p :     0.066621
      px      :     0.026520
      py      :     0.016491
 13 H s       :     0.794124  s :     0.794124
      pz      :     0.034519  p :     0.064406
      px      :     0.013286
      py      :     0.016602
 14 H s       :     0.791025  s :     0.791025
      pz      :     0.021033  p :     0.064354
      px      :     0.018701
      py      :     0.024621
 15 H s       :     0.787851  s :     0.787851
      pz      :     0.025359  p :     0.064111
      px      :     0.016180
      py      :     0.022572
 16 H s       :     0.794131  s :     0.794131
      pz      :     0.014228  p :     0.064069
      px      :     0.035330
      py      :     0.014511
 17 H s       :     0.792457  s :     0.792457
      pz      :     0.016380  p :     0.064782
      px      :     0.026446
      py      :     0.021955
 18 H s       :     0.782519  s :     0.782519
      pz      :     0.032376  p :     0.065190
      px      :     0.012446
      py      :     0.020367


                      *****************************
                      * MAYER POPULATION ANALYSIS *
                      *****************************

  NA   - Mulliken gross atomic population
  ZA   - Total nuclear charge
  QA   - Mulliken gross atomic charge
  VA   - Mayer's total valence
  BVA  - Mayer's bonded valence
  FA   - Mayer's free valence

  ATOM       NA         ZA         QA         VA         BVA        FA
  0 O      8.2701     8.0000    -0.2701     2.4616     2.0226     0.4390
  1 C      5.9599     6.0000     0.0401     4.2507     3.9196     0.3312
  2 C      5.7766     6.0000     0.2234     3.5181     3.1696     0.3485
  3 C      6.3289     6.0000    -0.3289     4.0316     3.6892     0.3424
  4 C      6.0930     6.0000    -0.0930     3.9020     3.5573     0.3447
  5 C      6.2668     6.0000    -0.2668     4.0742     3.7538     0.3204
  6 C      6.1828     6.0000    -0.1828     4.0120     3.7001     0.3120
  7 C      6.1325     6.0000    -0.1325     4.0053     3.6418     0.3635
  8 C      6.2473     6.0000    -0.2473     4.1193     3.7476     0.3718
  9 H      0.9322     1.0000     0.0678     0.9686     0.9162     0.0523
 10 H      0.8565     1.0000     0.1435     0.9744     0.9255     0.0489
 11 H      0.8509     1.0000     0.1491     0.9795     0.9308     0.0487
 12 H      0.8648     1.0000     0.1352     0.9604     0.9111     0.0492
 13 H      0.8712     1.0000     0.1288     0.9752     0.9255     0.0498
 14 H      0.8760     1.0000     0.1240     0.9737     0.9234     0.0504
 15 H      0.8733     1.0000     0.1267     0.9698     0.9189     0.0509
 16 H      0.8737     1.0000     0.1263     0.9729     0.9227     0.0502
 17 H      0.8725     1.0000     0.1275     0.9748     0.9265     0.0483
 18 H      0.8710     1.0000     0.1290     0.9840     0.9354     0.0486

  Mayer bond orders larger than 0.1
B(  0-O ,  1-C ) :   2.0226 B(  0-O ,  2-C ) :  -0.1173 B(  1-C ,  2-C ) :   0.8756 
B(  1-C ,  9-H ) :   0.9523 B(  2-C ,  3-C ) :   0.8107 B(  2-C ,  4-C ) :   0.8038 
B(  2-C ,  8-C ) :   0.9234 B(  3-C ,  4-C ) :   0.9061 B(  3-C , 10-H ) :   0.9235 
B(  3-C , 11-H ) :   0.9179 B(  4-C ,  5-C ) :   0.9004 B(  4-C , 12-H ) :   0.9232 
B(  5-C ,  6-C ) :   0.9380 B(  5-C , 13-H ) :   0.9370 B(  5-C , 14-H ) :   0.9290 
B(  6-C ,  7-C ) :   0.9283 B(  6-C , 15-H ) :   0.9102 B(  6-C , 16-H ) :   0.9367 
B(  7-C ,  8-C ) :   1.7916 B(  7-C , 17-H ) :   0.9275 B(  8-C , 18-H ) :   0.9246 



-------
TIMINGS
-------

Total time                : 1000.890 sec
Integral trafo            :    6.833 sec (  0.7%)
FC preparation            :    3.603 sec (  0.4%)
I/O of integrals          :    0.052 sec (  0.0%)
K(i,j) Operators          :    8.781 sec (  0.9%)
T(i,j) pair energies      :    0.814 sec (  0.1%)
V-calculation             :    0.018 sec (  0.0%)
V**(-1/2)                 :    0.125 sec (  0.0%)
Gamma(ia|P)               :    8.547 sec (  0.9%)
Gamma-Trafo               :    1.438 sec (  0.1%)
D(virtual)                :    3.283 sec (  0.3%)
D(internal)               :    3.208 sec (  0.3%)
W(virtual)                :    0.000 sec (  0.0%)
W(internal)               :    0.000 sec (  0.0%)
L(virtual)                :   10.430 sec (  1.0%)
L(internal)               :    0.204 sec (  0.0%)
G(D)                      :  112.452 sec ( 11.2%)
G(Z)                      :    0.000 sec (  0.0%)
Z-Vector Solution         :  840.379 sec ( 84.0%)
3-Index Derivative        :    0.000 sec (  0.0%)
2-Index Derivative        :    0.000 sec (  0.0%)
Separable Gradient (RIJ)  :    0.000 sec (  0.0%)
Separable Gradient (X)    :    0.000 sec (  0.0%)


---------------------------------------
MP2 TOTAL ENERGY:     -385.219393413 Eh
---------------------------------------

-------------------------   --------------------
FINAL SINGLE POINT ENERGY      -385.219393412534
-------------------------   --------------------


                            ***************************************
                            *     ORCA property calculations      *
                            ***************************************

                                    ---------------------
                                    Active property flags
                                    ---------------------
   (+) Dipole Moment


------------------------------------------------------------------------------
                       ORCA ELECTRIC PROPERTIES CALCULATION
------------------------------------------------------------------------------

Dipole Moment Calculation                       ... on
Quadrupole Moment Calculation                   ... off
Polarizability Calculation                      ... off
GBWName                                         ... dsgdb9nsd_048834.gbw
Electron density file                           ... dsgdb9nsd_048834.scfp.tmp

-------------
DIPOLE MOMENT
-------------
                                X             Y             Z
Electronic contribution:     -4.44394      -3.87641       2.59544
Nuclear contribution   :      5.03042       5.17201      -3.13013
                        -----------------------------------------
Total Dipole Moment    :      0.58648       1.29560      -0.53469
                        -----------------------------------------
Magnitude (a.u.)       :      1.51935
Magnitude (Debye)      :      3.86188


                         *** MP2 UNRELAXED DENSITY ***

------------------------------------------------------------------------------
                       ORCA ELECTRIC PROPERTIES CALCULATION
------------------------------------------------------------------------------

Dipole Moment Calculation                       ... on
Quadrupole Moment Calculation                   ... off
Polarizability Calculation                      ... off
GBWName                                         ... dsgdb9nsd_048834.gbw
Electron density file                           ... dsgdb9nsd_048834.pmp2ur

-------------
DIPOLE MOMENT
-------------
                                X             Y             Z
Electronic contribution:     -4.44771      -3.92586       2.61209
Nuclear contribution   :      5.03042       5.17201      -3.13013
                        -----------------------------------------
Total Dipole Moment    :      0.58271       1.24615      -0.51803
                        -----------------------------------------
Magnitude (a.u.)       :      1.46997
Magnitude (Debye)      :      3.73636


                           *** MP2 RELAXED DENSITY ***

------------------------------------------------------------------------------
                       ORCA ELECTRIC PROPERTIES CALCULATION
------------------------------------------------------------------------------

Dipole Moment Calculation                       ... on
Quadrupole Moment Calculation                   ... off
Polarizability Calculation                      ... off
GBWName                                         ... dsgdb9nsd_048834.gbw
Electron density file                           ... dsgdb9nsd_048834.pmp2re

-------------
DIPOLE MOMENT
-------------
                                X             Y             Z
Electronic contribution:     -4.45922      -4.08114       2.66835
Nuclear contribution   :      5.03042       5.17201      -3.13013
                        -----------------------------------------
Total Dipole Moment    :      0.57120       1.09087      -0.46177
                        -----------------------------------------
Magnitude (a.u.)       :      1.31510
Magnitude (Debye)      :      3.34272


Timings for individual modules:

Sum of individual times         ...     1172.340 sec (=  19.539 min)
GTO integral calculation        ...        0.656 sec (=   0.011 min)   0.1 %
SCF iterations                  ...      170.645 sec (=   2.844 min)  14.6 %
MP2 module                      ...     1001.039 sec (=  16.684 min)  85.4 %
                             ****ORCA TERMINATED NORMALLY****
TOTAL RUN TIME: 0 days 0 hours 19 minutes 32 seconds 862 msec
