
                                 *****************
                                 * O   R   C   A *
                                 *****************

           --- An Ab Initio, DFT and Semiempirical electronic structure package ---

                  #######################################################
                  #                        -***-                        #
                  #  Department of molecular theory and spectroscopy    #
                  #              Directorship: Frank Neese              #
                  # Max Planck Institute for Chemical Energy Conversion #
                  #                  D-45470 Muelheim/Ruhr              #
                  #                       Germany                       #
                  #                                                     #
                  #                  All rights reserved                #
                  #                        -***-                        #
                  #######################################################


                         Program Version 3.0.3 - RELEASE   -


 With contributions from (in alphabetic order):
   Ute Becker             : Parallelization
   Dmytro Bykov           : SCF Hessian
   Dmitry Ganyushin       : Spin-Orbit,Spin-Spin,Magnetic field MRCI
   Andreas Hansen         : Spin unrestricted coupled pair/coupled cluster methods
   Dimitrios Liakos       : Extrapolation schemes; parallel MDCI
   Robert Izsak           : Overlap fitted RIJCOSX, COSX-SCS-MP3
   Christian Kollmar      : KDIIS, OOCD, Brueckner-CCSD(T), CCSD density
   Simone Kossmann        : Meta GGA functionals, TD-DFT gradient, OOMP2, MP2 Hessian
   Taras Petrenko         : DFT Hessian,TD-DFT gradient, ASA and ECA modules, normal mode analysis, Resonance Raman, ABS, FL, XAS/XES, NRVS
   Christoph Reimann      : Effective Core Potentials
   Michael Roemelt        : Restricted open shell CIS
   Christoph Riplinger    : Improved optimizer, TS searches, QM/MM, DLPNO-CCSD
   Barbara Sandhoefer     : DKH picture change effects
   Igor Schapiro          : Molecular dynamics
   Kantharuban Sivalingam : CASSCF convergence, NEVPT2
   Boris Wezisla          : Elementary symmetry handling
   Frank Wennmohs         : Technical directorship


 We gratefully acknowledge several colleagues who have allowed us to
 interface, adapt or use parts of their codes:
   Stefan Grimme, W. Hujo, H. Kruse, T. Risthaus : VdW corrections, initial TS optimization,
                                                   DFT functionals, gCP
   Ed Valeev                                     : LibInt (2-el integral package), F12 methods
   Garnet Chan, S. Sharma, R. Olivares           : DMRG
   Ulf Ekstrom                                   : XCFun DFT Library
   Mihaly Kallay                                 : mrcc  (arbitrary order and MRCC methods)
   Andreas Klamt, Michael Diedenhofen            : otool_cosmo (COSMO solvation model)
   Frank Weinhold                                : gennbo (NPA and NBO analysis)
   Christopher J. Cramer and Donald G. Truhlar   : smd solvation model


 Your calculation uses the libint2 library for the computation of 2-el integrals
 For citations please refer to: http://libint.valeyev.net

 This ORCA versions uses:
   CBLAS   interface :  Fast vector & matrix operations
   LAPACKE interface :  Fast linear algebra routines
   SCALAPACK package :  Parallel linear algebra routines


Your calculation utilizes the basis: Ahlrichs-TZV
Cite in your paper:
H - Kr: A. Schaefer, H. Horn and R. Ahlrichs, J. Chem. Phys. 97, 2571 (1992).

The def2-TZV basis will be loaded
Cite in your paper:
 	F. Weigend, R. Ahlrichs, Phys. Chem. Chem. Phys. 2005, 7, 3297.

================================================================================
                                        WARNINGS
                       Please study these warnings very carefully!
================================================================================
Now building the actual basis set


INFO   : the flag for use of LIBINT has been found!

================================================================================
                                       INPUT FILE
================================================================================
NAME = dsgdb9nsd_080852.inp
|  1> ! RI-MP2 RIJK def2-TZVP def2-TZVP/C def2-TZVP/JK TIGHTSCF
|  2> % maxcore 2000
|  3> % mp2 density relaxed end
|  4> *xyz 0 1
|  5>  C       -0.1600863906     1.5032617498    -0.0365656691 
|  6>  C       -0.0197174688    -0.0102563053    -0.0295204894 
|  7>  C        1.2944778514    -0.5960878611    -0.6444033538 
|  8>  O        1.9836681617    -0.2197141357     0.5941681761 
|  9>  C        0.7177208217    -0.6439928951     1.2147488067 
| 10>  C        0.5249320367    -0.2080205438     2.6399199876 
| 11>  C        0.6873634272    -2.1497637707     0.8325691385 
| 12>  C        0.2912799797    -3.2762815025     1.7204921031 
| 13>  C        1.0869045748    -2.1012810703    -0.4420895110 
| 14>  H        0.7781365701     1.9818462684     0.2536638136 
| 15>  H       -0.4369659440     1.8608920521    -1.0344759548 
| 16>  H       -0.9460937388     1.8286356242     0.6544076233 
| 17>  H       -0.9457385472    -0.5073008085    -0.3331513513 
| 18>  H        1.7593428852    -0.2162353101    -1.5539665384 
| 19>  H        0.5503293095     0.8815598365     2.7236004600 
| 20>  H       -0.4373558573    -0.5613603515     3.0249061754 
| 21>  H        1.3174500263    -0.6163927246     3.2754259711 
| 22>  H       -0.7375914720    -3.1596132775     2.0853866650 
| 23>  H        0.3552055880    -4.2351404617     1.1985562933 
| 24>  H        0.9314030050    -3.3317796057     2.6102232557 
| 25>  H        1.2201847715    -2.8907165070    -1.1678578618 
| 26> *
| 27> 
| 28>                          ****END OF INPUT****
================================================================================

                       ****************************
                       * Single Point Calculation *
                       ****************************

---------------------------------
CARTESIAN COORDINATES (ANGSTROEM)
---------------------------------
  C     -0.160086    1.503262   -0.036566
  C     -0.019717   -0.010256   -0.029520
  C      1.294478   -0.596088   -0.644403
  O      1.983668   -0.219714    0.594168
  C      0.717721   -0.643993    1.214749
  C      0.524932   -0.208021    2.639920
  C      0.687363   -2.149764    0.832569
  C      0.291280   -3.276282    1.720492
  C      1.086905   -2.101281   -0.442090
  H      0.778137    1.981846    0.253664
  H     -0.436966    1.860892   -1.034476
  H     -0.946094    1.828636    0.654408
  H     -0.945739   -0.507301   -0.333151
  H      1.759343   -0.216235   -1.553967
  H      0.550329    0.881560    2.723600
  H     -0.437356   -0.561360    3.024906
  H      1.317450   -0.616393    3.275426
  H     -0.737591   -3.159613    2.085387
  H      0.355206   -4.235140    1.198556
  H      0.931403   -3.331780    2.610223
  H      1.220185   -2.890717   -1.167858

----------------------------
CARTESIAN COORDINATES (A.U.)
----------------------------
  NO LB      ZA    FRAG    MASS        X           Y           Z
   0 C     6.0000    0    12.011         -0.302519436001945          2.840753014721250         -0.069099100502587
   1 C     6.0000    0    12.011         -0.037260616086137         -0.019381608162885         -0.055785640305325
   2 C     6.0000    0    12.011          2.446208625572810         -1.126442809233891         -1.217745858462363
   3 O     8.0000    0    15.999          3.748589566192017         -0.415199544224210          1.122815130320494
   4 C     6.0000    0    12.011          1.356295793625925         -1.216970203930077          2.295542566170645
   5 C     6.0000    0    12.011          0.991977788284500         -0.393101858011370          4.988725792028786
   6 C     6.0000    0    12.011          1.298928631881518         -4.062464779248883          1.573327659319752
   7 C     6.0000    0    12.011          0.550439389927142         -6.191274777357035          3.251258890433207
   8 C     6.0000    0    12.011          2.053951980078126         -3.970845753259929         -0.835428102469167
   9 H     1.0000    0     1.008          1.470465012277816          3.745146686809791          0.479355137790049
  10 H     1.0000    0     1.008         -0.825745964010370          3.516576343259718         -1.954876246698700
  11 H     1.0000    0     1.008         -1.787858063349627          3.455620528470141          1.236651187987304
  12 H     1.0000    0     1.008         -1.787186848500557         -0.958659595581830         -0.629564815102790
  13 H     1.0000    0     1.008          3.324676228690856         -0.408625516572536         -2.936571178853622
  14 H     1.0000    0     1.008          1.039971678424987          1.665906661649396          5.146858967621943
  15 H     1.0000    0     1.008         -0.826482793363344         -1.060817326776770          5.716244252313161
  16 H     1.0000    0     1.008          2.489619744834350         -1.164813440435545          6.189658057312065
  17 H     1.0000    0     1.008         -1.393845880795845         -5.970803783576330          3.940809680181383
  18 H     1.0000    0     1.008          0.671241282558465         -8.003255611301807          2.264943150424795
  19 H     1.0000    0     1.008          1.760096599761286         -6.296150993357133          4.932607101665304
  20 H     1.0000    0     1.008          2.305815050916281         -5.462662529035454         -2.206931522148853

--------------------------------
INTERNAL COORDINATES (ANGSTROEM)
--------------------------------
 C      0   0   0   0.000000     0.000     0.000
 C      1   0   0   1.520030     0.000     0.000
 C      2   1   0   1.564733   116.650     0.000
 O      3   2   1   1.466526    88.094    77.502
 C      4   3   2   1.472330    82.990    37.786
 C      5   4   3   1.502782   115.241   195.002
 C      5   4   3   1.553811   101.092    63.003
 C      7   5   4   1.488063   126.304   137.667
 C      7   5   4   1.336689   101.161   317.220
 H      1   2   3   1.092492   110.833   317.149
 H      1   2   3   1.095622   110.645    77.460
 H      1   2   3   1.095956   111.034   196.399
 H      2   1   3   1.093965   111.898   223.749
 H      3   2   1   1.089813   123.761   319.002
 H      6   5   4   1.093084   111.027    59.543
 H      6   5   4   1.095017   110.643   179.915
 H      6   5   4   1.094861   110.450   299.648
 H      8   7   5   1.097878   111.550    59.192
 H      8   7   5   1.093579   111.311   179.715
 H      8   7   5   1.097478   111.517   300.361
 H      9   7   5   1.080607   130.604   180.898

---------------------------
INTERNAL COORDINATES (A.U.)
---------------------------
 C      0   0   0   0.000000     0.000     0.000
 C      1   0   0   2.872440     0.000     0.000
 C      2   1   0   2.956917   116.650     0.000
 O      3   2   1   2.771333    88.094    77.502
 C      4   3   2   2.782300    82.990    37.786
 C      5   4   3   2.839846   115.241   195.002
 C      5   4   3   2.936277   101.092    63.003
 C      7   5   4   2.812032   126.304   137.667
 C      7   5   4   2.525977   101.161   317.220
 H      1   2   3   2.064511   110.833   317.149
 H      1   2   3   2.070425   110.645    77.460
 H      1   2   3   2.071057   111.034   196.399
 H      2   1   3   2.067295   111.898   223.749
 H      3   2   1   2.059448   123.761   319.002
 H      6   5   4   2.065630   111.027    59.543
 H      6   5   4   2.069282   110.643   179.915
 H      6   5   4   2.068987   110.450   299.648
 H      8   7   5   2.074689   111.550    59.192
 H      8   7   5   2.066564   111.311   179.715
 H      8   7   5   2.073934   111.517   300.361
 H      9   7   5   2.042051   130.604   180.898

---------------------
BASIS SET INFORMATION
---------------------
There are 3 groups of distinct atoms

 Group   1 Type C   : 11s6p2d1f contracted to 5s3p2d1f pattern {62111/411/11/1}
 Group   2 Type O   : 11s6p2d1f contracted to 5s3p2d1f pattern {62111/411/11/1}
 Group   3 Type H   : 5s1p contracted to 3s1p pattern {311/1}

Atom   0C    basis set group =>   1
Atom   1C    basis set group =>   1
Atom   2C    basis set group =>   1
Atom   3O    basis set group =>   2
Atom   4C    basis set group =>   1
Atom   5C    basis set group =>   1
Atom   6C    basis set group =>   1
Atom   7C    basis set group =>   1
Atom   8C    basis set group =>   1
Atom   9H    basis set group =>   3
Atom  10H    basis set group =>   3
Atom  11H    basis set group =>   3
Atom  12H    basis set group =>   3
Atom  13H    basis set group =>   3
Atom  14H    basis set group =>   3
Atom  15H    basis set group =>   3
Atom  16H    basis set group =>   3
Atom  17H    basis set group =>   3
Atom  18H    basis set group =>   3
Atom  19H    basis set group =>   3
Atom  20H    basis set group =>   3
-------------------------------
AUXILIARY BASIS SET INFORMATION
-------------------------------
There are 3 groups of distinct atoms

 Group   1 Type C   : 14s10p6d2f1g contracted to 10s8p5d1f1g pattern {5111111111/31111111/21111/2/1}
 Group   2 Type O   : 14s10p6d2f1g contracted to 10s8p4d2f1g pattern {5111111111/31111111/3111/11/1}
 Group   3 Type H   : 4s2p2d contracted to 2s2p2d pattern {31/11/11}

Atom   0C    basis set group =>   1
Atom   1C    basis set group =>   1
Atom   2C    basis set group =>   1
Atom   3O    basis set group =>   2
Atom   4C    basis set group =>   1
Atom   5C    basis set group =>   1
Atom   6C    basis set group =>   1
Atom   7C    basis set group =>   1
Atom   8C    basis set group =>   1
Atom   9H    basis set group =>   3
Atom  10H    basis set group =>   3
Atom  11H    basis set group =>   3
Atom  12H    basis set group =>   3
Atom  13H    basis set group =>   3
Atom  14H    basis set group =>   3
Atom  15H    basis set group =>   3
Atom  16H    basis set group =>   3
Atom  17H    basis set group =>   3
Atom  18H    basis set group =>   3
Atom  19H    basis set group =>   3
Atom  20H    basis set group =>   3
------------------------------------------------------------------------------
                           ORCA GTO INTEGRAL CALCULATION
                           -- RI-GTO INTEGRALS CHOSEN --
------------------------------------------------------------------------------

                         BASIS SET STATISTICS AND STARTUP INFO

Gaussian basis set:
 # of primitive gaussian shells          ...  252
 # of primitive gaussian functions       ...  510
 # of contracted shells                  ...  147
 # of contracted basis functions         ...  351
 Highest angular momentum                ...    3
 Maximum contraction depth               ...    6
Auxiliary gaussian basis set:
 # of primitive gaussian shells          ...  393
 # of primitive gaussian functions       ... 1113
 # of contracted shells                  ...  297
 # of contracted aux-basis functions     ...  893
 Highest angular momentum                ...    4
 Maximum contraction depth               ...    5
Ratio of auxiliary to basis functions    ...  2.54
Integral package used                  ... LIBINT
 One Electron integrals                  ... done
 Ordering auxiliary basis shells         ... done
 Integral threshhold             Thresh  ...  2.500e-11
 Primitive cut-off               TCut    ...  2.500e-12
 Pre-screening matrix                    ... done
 Shell pair data                         ... 
 Ordering of the shell pairs             ... done (   0.002 sec) 10105 of 10878 pairs
 Determination of significant pairs      ... done (   0.000 sec)
 Creation of shell pair data             ... done (   0.002 sec)
 Storage of shell pair data              ... done (   0.002 sec)
 Shell pair data done in (   0.006 sec)
 Computing two index integrals           ... done
 Cholesky decomposition of the V-matrix  ... done


Timings:
 Total evaluation time                   ...   0.429 sec (  0.007 min)
 One electron matrix time                ...   0.111 sec (  0.002 min) = 25.8%
 Schwartz matrix evaluation time         ...   0.221 sec (  0.004 min) = 51.4%
 Two index repulsion integral time       ...   0.024 sec (  0.000 min) =  5.7%
 Cholesky decomposition of V             ...   0.039 sec (  0.001 min) =  9.1%
 Three index repulsion integral time     ...   0.000 sec (  0.000 min) =  0.0%

-------------------------------------------------------------------------------
                                 ORCA SCF
-------------------------------------------------------------------------------

------------
SCF SETTINGS
------------
Hamiltonian:
 Ab initio Hamiltonian  Method          .... Hartree-Fock(GTOs)
 RI-approximation to the Coulomb term is turned on
   Number of auxiliary basis functions  .... 893
   RI-JK (J+K treated both via RI)      .... on


General Settings:
 Integral files         IntName         .... dsgdb9nsd_080852
 Hartree-Fock type      HFTyp           .... RHF
 Total Charge           Charge          ....    0
 Multiplicity           Mult            ....    1
 Number of Electrons    NEL             ....   68
 Basis Dimension        Dim             ....  351
 Nuclear Repulsion      ENuc            ....    471.0950132872 Eh

Convergence Acceleration:
 DIIS                   CNVDIIS         .... on
   Start iteration      DIISMaxIt       ....    12
   Startup error        DIISStart       ....  0.200000
   # of expansion vecs  DIISMaxEq       ....     5
   Bias factor          DIISBfac        ....   1.050
   Max. coefficient     DIISMaxC        ....  10.000
 Newton-Raphson         CNVNR           .... off
 SOSCF                  CNVSOSCF        .... on
   Start iteration      SOSCFMaxIt      ....   150
   Startup grad/error   SOSCFStart      ....  0.003300
 Level Shifting         CNVShift        .... on
   Level shift para.    LevelShift      ....    0.2500
   Turn off err/grad.   ShiftErr        ....    0.0010
 Zerner damping         CNVZerner       .... off
 Static damping         CNVDamp         .... on
   Fraction old density DampFac         ....    0.7000
   Max. Damping (<1)    DampMax         ....    0.9800
   Min. Damping (>=0)   DampMin         ....    0.0000
   Turn off err/grad.   DampErr         ....    0.1000
 Fernandez-Rico         CNVRico         .... off

SCF Procedure:
 Maximum # iterations   MaxIter         ....   125
 SCF integral mode      SCFMode         .... Direct
   Integral package                     .... LIBINT
 Reset frequeny         DirectResetFreq ....    20
 Integral Threshold     Thresh          ....  2.500e-11 Eh
 Primitive CutOff       TCut            ....  2.500e-12 Eh

Convergence Tolerance:
 Convergence Check Mode ConvCheckMode   .... Total+1el-Energy
 Energy Change          TolE            ....  1.000e-08 Eh
 1-El. energy change                    ....  1.000e-05 Eh
 Orbital Gradient       TolG            ....  1.000e-05
 Orbital Rotation angle TolX            ....  1.000e-05
 DIIS Error             TolErr          ....  5.000e-07


Diagonalization of the overlap matrix:
Smallest eigenvalue                        ... 1.346e-05
Time for diagonalization                   ...    0.037 sec
Threshold for overlap eigenvalues          ... 1.000e-08
Number of eigenvalues below threshold      ... 0
Time for construction of square roots      ...    0.020 sec
Total time needed                          ...    0.057 sec

-------------------
DFT GRID GENERATION
-------------------

General Integration Accuracy     IntAcc      ...  4.340
Radial Grid Type                 RadialGrid  ... Gauss-Chebyshev
Angular Grid (max. acc.)         AngularGrid ... Lebedev-110
Angular grid pruning method      GridPruning ... 3 (G Style)
Weight generation scheme         WeightScheme... Becke
Basis function cutoff            BFCut       ...    1.0000e-11
Integration weight cutoff        WCut        ...    1.0000e-14
Grids for H and He will be reduced by one unit

# of grid points (after initial pruning)     ...  24492 (   0.0 sec)
# of grid points (after weights+screening)   ...  22208 (   0.1 sec)
nearest neighbour list constructed           ...    0.0 sec
Grid point re-assignment to atoms done       ...    0.0 sec
Grid point division into batches done        ...    0.0 sec
Reduced shell lists constructed in    1.5 sec

Total number of grid points                  ...    22208
Total number of batches                      ...      358
Average number of points per batch           ...       62
Average number of grid points per atom       ...     1058
Average number of shells per batch           ...   100.75 (68.54%)
Average number of basis functions per batch  ...   248.99 (70.94%)
Average number of large shells per batch     ...    78.09 (77.51%)
Average number of large basis fcns per batch ...   189.40 (76.07%)
Average number of aux-shells per batch       ...   100.75 (33.92%)
Average number of aux functions per batch    ...   248.99 (  inf%)
Maximum spatial batch extension              ...  25.99, 18.67, 20.33 au
Average spatial batch extension              ...   3.73,  3.50,  3.49 au

Time for grid setup =    1.649 sec

------------------------------
INITIAL GUESS: MODEL POTENTIAL
------------------------------
Loading Hartree-Fock densities                     ... done
Calculating cut-offs                               ... done
Setting up the integral package                    ... done
Initializing the effective Hamiltonian             ... done
Starting the Coulomb interaction                   ... done (   0.8 sec)
Reading the grid                                   ... done
Mapping shells                                     ... done
Starting the XC term evaluation                    ... done (   0.8 sec)
Transforming the Hamiltonian                       ... done (   0.0 sec)
Diagonalizing the Hamiltonian                      ... done (   0.0 sec)
Back transforming the eigenvectors                 ... done (   0.0 sec)
Now organizing SCF variables                       ... done
                      ------------------
                      INITIAL GUESS DONE (   3.5 sec)
                      ------------------
--------------
SCF ITERATIONS
--------------
ITER       Energy         Delta-E        Max-DP      RMS-DP      [F,P]     Damp
  0   -384.4110772905   0.000000000000 0.03687441  0.00095000  0.2951775 0.7000
  1   -384.2942438811   0.116833409443 0.03838969  0.00100546  0.2478294 0.7000
                               ***Turning on DIIS***
  2   -384.3467814147  -0.052537533607 0.02423603  0.00073100  0.1814702 0.7000
  3   -385.6759977031  -1.329216288405 0.01471657  0.00042406  0.1274968 0.7000
  4   -384.8330034986   0.842994204490 0.04952374  0.00109140  0.0842626 0.0000
  5   -384.7434443142   0.089559184401 0.01023324  0.00024604  0.0188909 0.0000
  6   -384.6981724935   0.045271820732 0.00424720  0.00013341  0.0142965 0.0000
  7   -384.7367725439  -0.038600050409 0.00270095  0.00007645  0.0075448 0.0000
  8   -384.7377567368  -0.000984192939 0.00260919  0.00005251  0.0038351 0.0000
                      *** Initiating the SOSCF procedure ***
                           *** Shutting down DIIS ***
                      *** Re-Reading the Fockian *** 
                      *** Removing any level shift *** 
ITER      Energy       Delta-E        Grad      Rot      Max-DP    RMS-DP
  9   -384.83412076  -0.0963640227  0.000131  0.000131  0.000760  0.000019
 10   -384.84002241  -0.0059016505  0.000138  0.000286  0.000206  0.000005
 11   -384.84002267  -0.0000002570  0.000028  0.000062  0.000074  0.000002
 12   -384.84002280  -0.0000001304  0.000026  0.000097  0.000047  0.000001
 13   -384.84002282  -0.0000000200  0.000010  0.000046  0.000021  0.000001
 14   -384.84002282  -0.0000000032  0.000003  0.000010  0.000007  0.000000
                  ***Gradient check signals convergence***
              ***Rediagonalizing the Fockian in SOSCF/NRSCF***

               *****************************************************
               *                     SUCCESS                       *
               *           SCF CONVERGED AFTER  15 CYCLES          *
               *****************************************************


----------------
TOTAL SCF ENERGY
----------------

Total Energy       :         -384.84002282 Eh          -10472.02941 eV

Components:
Nuclear Repulsion  :          471.09501329 Eh           12819.14702 eV
Electronic Energy  :         -855.93503611 Eh          -23291.17643 eV

One Electron Energy:        -1456.79645085 Eh          -39641.44676 eV
Two Electron Energy:          600.86141475 Eh           16350.27033 eV

Virial components:
Potential Energy   :         -769.15971787 Eh          -20929.89998 eV
Kinetic Energy     :          384.31969505 Eh           10457.87057 eV
Virial Ratio       :            2.00135389


---------------
SCF CONVERGENCE
---------------

  Last Energy change         ...   -5.3808e-10  Tolerance :   1.0000e-08
  Last MAX-Density change    ...    3.1641e-06  Tolerance :   1.0000e-07
  Last RMS-Density change    ...    7.5144e-08  Tolerance :   5.0000e-09
  Last Orbital Gradient      ...    6.9033e-07  Tolerance :   1.0000e-05
  Last Orbital Rotation      ...    1.9881e-06  Tolerance :   1.0000e-05

             **** THE GBW FILE WAS UPDATED (dsgdb9nsd_080852.gbw) ****
             **** DENSITY FILE WAS UPDATED (dsgdb9nsd_080852.scfp.tmp) ****
             **** ENERGY FILE WAS UPDATED (dsgdb9nsd_080852.en.tmp) ****
----------------
ORBITAL ENERGIES
----------------

  NO   OCC          E(Eh)            E(eV) 
   0   2.0000     -20.536027      -558.8137 
   1   2.0000     -11.290987      -307.2434 
   2   2.0000     -11.283669      -307.0442 
   3   2.0000     -11.235073      -305.7219 
   4   2.0000     -11.233320      -305.6742 
   5   2.0000     -11.229340      -305.5659 
   6   2.0000     -11.220636      -305.3290 
   7   2.0000     -11.217271      -305.2375 
   8   2.0000     -11.211531      -305.0813 
   9   2.0000      -1.379245       -37.5312 
  10   2.0000      -1.100908       -29.9572 
  11   2.0000      -1.029752       -28.0210 
  12   2.0000      -1.013814       -27.5873 
  13   2.0000      -0.963631       -26.2217 
  14   2.0000      -0.873157       -23.7598 
  15   2.0000      -0.866981       -23.5918 
  16   2.0000      -0.737357       -20.0645 
  17   2.0000      -0.695328       -18.9208 
  18   2.0000      -0.667205       -18.1556 
  19   2.0000      -0.657611       -17.8945 
  20   2.0000      -0.605190       -16.4681 
  21   2.0000      -0.588378       -16.0106 
  22   2.0000      -0.575210       -15.6523 
  23   2.0000      -0.561281       -15.2732 
  24   2.0000      -0.552325       -15.0295 
  25   2.0000      -0.543788       -14.7972 
  26   2.0000      -0.533618       -14.5205 
  27   2.0000      -0.519092       -14.1252 
  28   2.0000      -0.510082       -13.8800 
  29   2.0000      -0.484016       -13.1708 
  30   2.0000      -0.457841       -12.4585 
  31   2.0000      -0.424221       -11.5436 
  32   2.0000      -0.405156       -11.0249 
  33   2.0000      -0.333751        -9.0818 
  34   0.0000       0.129904         3.5349 
  35   0.0000       0.147556         4.0152 
  36   0.0000       0.155247         4.2245 
  37   0.0000       0.170850         4.6491 
  38   0.0000       0.184750         5.0273 
  39   0.0000       0.196480         5.3465 
  40   0.0000       0.199213         5.4209 
  41   0.0000       0.200900         5.4668 
  42   0.0000       0.224325         6.1042 
  43   0.0000       0.228118         6.2074 
  44   0.0000       0.234804         6.3893 
  45   0.0000       0.237698         6.4681 
  46   0.0000       0.246827         6.7165 
  47   0.0000       0.257189         6.9985 
  48   0.0000       0.269854         7.3431 
  49   0.0000       0.280403         7.6301 
  50   0.0000       0.282823         7.6960 
  51   0.0000       0.293069         7.9748 
  52   0.0000       0.306723         8.3464 
  53   0.0000       0.316765         8.6196 
  54   0.0000       0.334523         9.1028 
  55   0.0000       0.343052         9.3349 
  56   0.0000       0.364126         9.9084 
  57   0.0000       0.367137         9.9903 
  58   0.0000       0.394272        10.7287 
  59   0.0000       0.399242        10.8639 
  60   0.0000       0.416634        11.3372 
  61   0.0000       0.431986        11.7549 
  62   0.0000       0.447942        12.1891 
  63   0.0000       0.457641        12.4530 
  64   0.0000       0.475209        12.9311 
  65   0.0000       0.478169        13.0116 
  66   0.0000       0.490368        13.3436 
  67   0.0000       0.494216        13.4483 
  68   0.0000       0.503860        13.7107 
  69   0.0000       0.516787        14.0625 
  70   0.0000       0.530521        14.4362 
  71   0.0000       0.545515        14.8442 
  72   0.0000       0.551685        15.0121 
  73   0.0000       0.558852        15.2071 
  74   0.0000       0.559839        15.2340 
  75   0.0000       0.571066        15.5395 
  76   0.0000       0.585658        15.9366 
  77   0.0000       0.590843        16.0777 
  78   0.0000       0.600220        16.3328 
  79   0.0000       0.616400        16.7731 
  80   0.0000       0.622524        16.9397 
  81   0.0000       0.626806        17.0563 
  82   0.0000       0.630634        17.1604 
  83   0.0000       0.647668        17.6240 
  84   0.0000       0.654454        17.8086 
  85   0.0000       0.660317        17.9681 
  86   0.0000       0.672433        18.2978 
  87   0.0000       0.677435        18.4340 
  88   0.0000       0.683371        18.5955 
  89   0.0000       0.694597        18.9010 
  90   0.0000       0.698708        19.0128 
  91   0.0000       0.722940        19.6722 
  92   0.0000       0.739807        20.1312 
  93   0.0000       0.745654        20.2903 
  94   0.0000       0.755682        20.5631 
  95   0.0000       0.782975        21.3058 
  96   0.0000       0.797792        21.7090 
  97   0.0000       0.805977        21.9317 
  98   0.0000       0.841315        22.8933 
  99   0.0000       0.872420        23.7398 
 100   0.0000       0.897347        24.4180 
 101   0.0000       0.924594        25.1595 
 102   0.0000       0.929008        25.2796 
 103   0.0000       0.956554        26.0292 
 104   0.0000       0.966736        26.3062 
 105   0.0000       0.993723        27.0406 
 106   0.0000       1.030539        28.0424 
 107   0.0000       1.033384        28.1198 
 108   0.0000       1.051042        28.6003 
 109   0.0000       1.072656        29.1885 
 110   0.0000       1.088293        29.6140 
 111   0.0000       1.111941        30.2575 
 112   0.0000       1.130836        30.7716 
 113   0.0000       1.144629        31.1469 
 114   0.0000       1.151023        31.3209 
 115   0.0000       1.157703        31.5027 
 116   0.0000       1.186013        32.2731 
 117   0.0000       1.204394        32.7732 
 118   0.0000       1.210174        32.9305 
 119   0.0000       1.224867        33.3303 
 120   0.0000       1.238559        33.7029 
 121   0.0000       1.253927        34.1211 
 122   0.0000       1.262508        34.3546 
 123   0.0000       1.289708        35.0947 
 124   0.0000       1.301336        35.4112 
 125   0.0000       1.333385        36.2833 
 126   0.0000       1.344158        36.5764 
 127   0.0000       1.347725        36.6735 
 128   0.0000       1.388373        37.7795 
 129   0.0000       1.394304        37.9409 
 130   0.0000       1.404691        38.2236 
 131   0.0000       1.431435        38.9513 
 132   0.0000       1.441571        39.2271 
 133   0.0000       1.460376        39.7389 
 134   0.0000       1.488641        40.5080 
 135   0.0000       1.503676        40.9171 
 136   0.0000       1.534450        41.7545 
 137   0.0000       1.549699        42.1694 
 138   0.0000       1.560052        42.4512 
 139   0.0000       1.585716        43.1495 
 140   0.0000       1.595737        43.4222 
 141   0.0000       1.647872        44.8409 
 142   0.0000       1.675039        45.5801 
 143   0.0000       1.688061        45.9345 
 144   0.0000       1.730141        47.0795 
 145   0.0000       1.764975        48.0274 
 146   0.0000       1.779000        48.4090 
 147   0.0000       1.803092        49.0646 
 148   0.0000       1.806258        49.1508 
 149   0.0000       1.809949        49.2512 
 150   0.0000       1.818656        49.4881 
 151   0.0000       1.831431        49.8358 
 152   0.0000       1.834710        49.9250 
 153   0.0000       1.856527        50.5187 
 154   0.0000       1.880500        51.1710 
 155   0.0000       1.883034        51.2400 
 156   0.0000       1.898557        51.6624 
 157   0.0000       1.907550        51.9071 
 158   0.0000       1.922054        52.3017 
 159   0.0000       1.932367        52.5824 
 160   0.0000       1.948925        53.0330 
 161   0.0000       1.975578        53.7582 
 162   0.0000       1.981317        53.9144 
 163   0.0000       2.036178        55.4072 
 164   0.0000       2.041655        55.5563 
 165   0.0000       2.059542        56.0430 
 166   0.0000       2.106791        57.3287 
 167   0.0000       2.141894        58.2839 
 168   0.0000       2.157092        58.6975 
 169   0.0000       2.172127        59.1066 
 170   0.0000       2.188951        59.5644 
 171   0.0000       2.217470        60.3404 
 172   0.0000       2.235828        60.8400 
 173   0.0000       2.264922        61.6317 
 174   0.0000       2.271028        61.7978 
 175   0.0000       2.293799        62.4174 
 176   0.0000       2.308873        62.8276 
 177   0.0000       2.328928        63.3733 
 178   0.0000       2.341942        63.7275 
 179   0.0000       2.356211        64.1158 
 180   0.0000       2.369436        64.4756 
 181   0.0000       2.427949        66.0678 
 182   0.0000       2.436167        66.2915 
 183   0.0000       2.461601        66.9836 
 184   0.0000       2.480978        67.5108 
 185   0.0000       2.505677        68.1829 
 186   0.0000       2.523256        68.6613 
 187   0.0000       2.532771        68.9202 
 188   0.0000       2.541550        69.1591 
 189   0.0000       2.558337        69.6159 
 190   0.0000       2.575200        70.0748 
 191   0.0000       2.599249        70.7292 
 192   0.0000       2.614956        71.1566 
 193   0.0000       2.624592        71.4188 
 194   0.0000       2.636454        71.7416 
 195   0.0000       2.642016        71.8929 
 196   0.0000       2.672534        72.7233 
 197   0.0000       2.678012        72.8724 
 198   0.0000       2.683916        73.0331 
 199   0.0000       2.696639        73.3793 
 200   0.0000       2.706153        73.6382 
 201   0.0000       2.726362        74.1881 
 202   0.0000       2.750544        74.8461 
 203   0.0000       2.770159        75.3799 
 204   0.0000       2.785497        75.7972 
 205   0.0000       2.822632        76.8077 
 206   0.0000       2.826315        76.9079 
 207   0.0000       2.839183        77.2581 
 208   0.0000       2.847392        77.4815 
 209   0.0000       2.860049        77.8259 
 210   0.0000       2.871082        78.1261 
 211   0.0000       2.888416        78.5978 
 212   0.0000       2.903273        79.0021 
 213   0.0000       2.922062        79.5134 
 214   0.0000       2.927735        79.6677 
 215   0.0000       2.959110        80.5215 
 216   0.0000       2.964547        80.6694 
 217   0.0000       2.996094        81.5278 
 218   0.0000       3.007031        81.8255 
 219   0.0000       3.019245        82.1578 
 220   0.0000       3.065623        83.4198 
 221   0.0000       3.077622        83.7464 
 222   0.0000       3.090805        84.1051 
 223   0.0000       3.107573        84.5614 
 224   0.0000       3.117551        84.8329 
 225   0.0000       3.145110        85.5828 
 226   0.0000       3.156807        85.9011 
 227   0.0000       3.161495        86.0286 
 228   0.0000       3.195846        86.9634 
 229   0.0000       3.212349        87.4125 
 230   0.0000       3.235491        88.0422 
 231   0.0000       3.252231        88.4977 
 232   0.0000       3.263590        88.8068 
 233   0.0000       3.307431        89.9998 
 234   0.0000       3.319683        90.3332 
 235   0.0000       3.347996        91.1036 
 236   0.0000       3.366219        91.5995 
 237   0.0000       3.381683        92.0203 
 238   0.0000       3.395413        92.3939 
 239   0.0000       3.408733        92.7563 
 240   0.0000       3.425022        93.1996 
 241   0.0000       3.441064        93.6361 
 242   0.0000       3.454636        94.0054 
 243   0.0000       3.458935        94.1224 
 244   0.0000       3.484571        94.8200 
 245   0.0000       3.491393        95.0056 
 246   0.0000       3.501442        95.2791 
 247   0.0000       3.526968        95.9737 
 248   0.0000       3.529863        96.0525 
 249   0.0000       3.551555        96.6427 
 250   0.0000       3.559851        96.8685 
 251   0.0000       3.583235        97.5048 
 252   0.0000       3.585933        97.5782 
 253   0.0000       3.604093        98.0723 
 254   0.0000       3.612791        98.3090 
 255   0.0000       3.630530        98.7917 
 256   0.0000       3.644830        99.1809 
 257   0.0000       3.655905        99.4822 
 258   0.0000       3.679595       100.1269 
 259   0.0000       3.696797       100.5950 
 260   0.0000       3.701161       100.7137 
 261   0.0000       3.708420       100.9112 
 262   0.0000       3.732428       101.5645 
 263   0.0000       3.741137       101.8015 
 264   0.0000       3.765141       102.4547 
 265   0.0000       3.776348       102.7597 
 266   0.0000       3.802515       103.4717 
 267   0.0000       3.821058       103.9763 
 268   0.0000       3.843194       104.5786 
 269   0.0000       3.862099       105.0930 
 270   0.0000       3.878465       105.5384 
 271   0.0000       3.902654       106.1966 
 272   0.0000       3.912928       106.4762 
 273   0.0000       3.937842       107.1541 
 274   0.0000       3.950706       107.5042 
 275   0.0000       3.968389       107.9854 
 276   0.0000       3.989476       108.5592 
 277   0.0000       4.028484       109.6206 
 278   0.0000       4.040924       109.9591 
 279   0.0000       4.052259       110.2676 
 280   0.0000       4.072176       110.8095 
 281   0.0000       4.103443       111.6604 
 282   0.0000       4.106934       111.7554 
 283   0.0000       4.141320       112.6910 
 284   0.0000       4.152632       112.9988 
 285   0.0000       4.162119       113.2570 
 286   0.0000       4.218007       114.7778 
 287   0.0000       4.246549       115.5545 
 288   0.0000       4.250143       115.6523 
 289   0.0000       4.270455       116.2050 
 290   0.0000       4.298269       116.9618 
 291   0.0000       4.325214       117.6951 
 292   0.0000       4.376244       119.0836 
 293   0.0000       4.395155       119.5982 
 294   0.0000       4.408774       119.9688 
 295   0.0000       4.439810       120.8134 
 296   0.0000       4.455300       121.2349 
 297   0.0000       4.494308       122.2964 
 298   0.0000       4.503715       122.5523 
 299   0.0000       4.535458       123.4161 
 300   0.0000       4.595751       125.0567 
 301   0.0000       4.632570       126.0586 
 302   0.0000       4.644235       126.3761 
 303   0.0000       4.682157       127.4080 
 304   0.0000       4.705891       128.0538 
 305   0.0000       4.733601       128.8078 
 306   0.0000       4.754060       129.3646 
 307   0.0000       4.769343       129.7804 
 308   0.0000       4.793951       130.4500 
 309   0.0000       4.819043       131.1328 
 310   0.0000       4.832950       131.5113 
 311   0.0000       4.871168       132.5512 
 312   0.0000       4.943668       134.5240 
 313   0.0000       4.974660       135.3674 
 314   0.0000       5.007898       136.2718 
 315   0.0000       5.014268       136.4452 
 316   0.0000       5.053280       137.5067 
 317   0.0000       5.085259       138.3769 
 318   0.0000       5.103744       138.8799 
 319   0.0000       5.204863       141.6315 
 320   0.0000       5.225735       142.1995 
 321   0.0000       5.248000       142.8054 
 322   0.0000       5.278970       143.6481 
 323   0.0000       5.376567       146.3038 
 324   0.0000       5.449343       148.2842 
 325   0.0000       5.534805       150.6097 
 326   0.0000       5.573378       151.6593 
 327   0.0000       5.601199       152.4164 
 328   0.0000       5.763935       156.8447 
 329   0.0000       5.896164       160.4428 
 330   0.0000       5.959264       162.1598 
 331   0.0000       6.073699       165.2738 
 332   0.0000       6.152971       167.4309 
 333   0.0000       6.250619       170.0880 
 334   0.0000       6.298300       171.3855 
 335   0.0000       6.584203       179.1653 
 336   0.0000       6.744402       183.5245 
 337   0.0000       7.308296       198.8688 
 338   0.0000       7.420519       201.9226 
 339   0.0000       7.453545       202.8213 
 340   0.0000       7.592907       206.6135 
 341   0.0000       7.918928       215.4850 
 342   0.0000      23.399206       636.7248 
 343   0.0000      23.473557       638.7480 
 344   0.0000      23.494614       639.3210 
 345   0.0000      23.567158       641.2950 
 346   0.0000      23.633109       643.0896 
 347   0.0000      23.760138       646.5462 
 348   0.0000      24.113241       656.1546 
 349   0.0000      24.550811       668.0615 
 350   0.0000      46.037271      1252.7378 

                    ********************************
                    * MULLIKEN POPULATION ANALYSIS *
                    ********************************

-----------------------
MULLIKEN ATOMIC CHARGES
-----------------------
   0 C :   -0.417569
   1 C :    0.068105
   2 C :    0.145215
   3 O :   -0.430510
   4 C :    0.264057
   5 C :   -0.368697
   6 C :   -0.048688
   7 C :   -0.376256
   8 C :   -0.257417
   9 H :    0.140636
  10 H :    0.108365
  11 H :    0.104465
  12 H :    0.088471
  13 H :    0.128398
  14 H :    0.128961
  15 H :    0.106700
  16 H :    0.121910
  17 H :    0.115328
  18 H :    0.124310
  19 H :    0.122408
  20 H :    0.131807
Sum of atomic charges:   -0.0000000

--------------------------------
MULLIKEN REDUCED ORBITAL CHARGES
--------------------------------
  0 C s       :     3.274223  s :     3.274223
      pz      :     1.058024  p :     3.063879
      px      :     1.069830
      py      :     0.936024
      dz2     :     0.012242  d :     0.074929
      dxz     :     0.012172
      dyz     :     0.015376
      dx2y2   :     0.015067
      dxy     :     0.020071
      f0      :     0.000688  f :     0.004539
      f+1     :     0.000539
      f-1     :     0.000620
      f+2     :     0.000651
      f-2     :     0.000127
      f+3     :     0.000732
      f-3     :     0.001181
  1 C s       :     3.082392  s :     3.082392
      pz      :     0.896975  p :     2.713112
      px      :     0.919535
      py      :     0.896602
      dz2     :     0.021364  d :     0.127211
      dxz     :     0.023391
      dyz     :     0.026365
      dx2y2   :     0.029617
      dxy     :     0.026474
      f0      :     0.001228  f :     0.009180
      f+1     :     0.001186
      f-1     :     0.000930
      f+2     :     0.001494
      f-2     :     0.000970
      f+3     :     0.001449
      f-3     :     0.001922
  2 C s       :     3.069429  s :     3.069429
      pz      :     0.847891  p :     2.616730
      px      :     0.851943
      py      :     0.916895
      dz2     :     0.030330  d :     0.154084
      dxz     :     0.035211
      dyz     :     0.029117
      dx2y2   :     0.031325
      dxy     :     0.028101
      f0      :     0.002299  f :     0.014543
      f+1     :     0.003031
      f-1     :     0.002039
      f+2     :     0.002286
      f-2     :     0.001997
      f+3     :     0.001488
      f-3     :     0.001403
  3 O s       :     3.808971  s :     3.808971
      pz      :     1.263121  p :     4.581061
      px      :     1.499418
      py      :     1.818522
      dz2     :     0.006771  d :     0.038666
      dxz     :     0.014023
      dyz     :     0.005195
      dx2y2   :     0.006574
      dxy     :     0.006102
      f0      :     0.000195  f :     0.001812
      f+1     :     0.000309
      f-1     :     0.000165
      f+2     :     0.000328
      f-2     :     0.000274
      f+3     :     0.000231
      f-3     :     0.000311
  4 C s       :     3.166366  s :     3.166366
      pz      :     0.778699  p :     2.341287
      px      :     0.709243
      py      :     0.853345
      dz2     :     0.049057  d :     0.211558
      dxz     :     0.045874
      dyz     :     0.037410
      dx2y2   :     0.045779
      dxy     :     0.033437
      f0      :     0.002997  f :     0.016733
      f+1     :     0.002764
      f-1     :     0.002140
      f+2     :     0.002478
      f-2     :     0.001900
      f+3     :     0.002342
      f-3     :     0.002111
  5 C s       :     3.297313  s :     3.297313
      pz      :     0.900792  p :     3.000172
      px      :     1.040269
      py      :     1.059111
      dz2     :     0.014456  d :     0.066875
      dxz     :     0.017353
      dyz     :     0.012805
      dx2y2   :     0.016029
      dxy     :     0.006232
      f0      :     0.001238  f :     0.004337
      f+1     :     0.000577
      f-1     :     0.000918
      f+2     :     0.000412
      f-2     :     0.000199
      f+3     :     0.000047
      f-3     :     0.000946
  6 C s       :     3.218125  s :     3.218125
      pz      :     0.930824  p :     2.680945
      px      :     0.909338
      py      :     0.840783
      dz2     :     0.038389  d :     0.138341
      dxz     :     0.028488
      dyz     :     0.038251
      dx2y2   :     0.020400
      dxy     :     0.012813
      f0      :     0.001905  f :     0.011276
      f+1     :     0.001492
      f-1     :     0.002666
      f+2     :     0.001721
      f-2     :     0.001098
      f+3     :     0.001025
      f-3     :     0.001370
  7 C s       :     3.300628  s :     3.300628
      pz      :     1.008938  p :     2.995784
      px      :     1.030655
      py      :     0.956191
      dz2     :     0.014145  d :     0.075433
      dxz     :     0.018519
      dyz     :     0.014598
      dx2y2   :     0.021825
      dxy     :     0.006346
      f0      :     0.000369  f :     0.004412
      f+1     :     0.000562
      f-1     :     0.000553
      f+2     :     0.001720
      f-2     :     0.000412
      f+3     :     0.000421
      f-3     :     0.000374
  8 C s       :     3.189050  s :     3.189050
      pz      :     0.947546  p :     2.965307
      px      :     1.042747
      py      :     0.975013
      dz2     :     0.024905  d :     0.094024
      dxz     :     0.016337
      dyz     :     0.028981
      dx2y2   :     0.013694
      dxy     :     0.010107
      f0      :     0.001667  f :     0.009036
      f+1     :     0.001314
      f-1     :     0.002049
      f+2     :     0.001402
      f-2     :     0.000621
      f+3     :     0.000860
      f-3     :     0.001124
  9 H s       :     0.837251  s :     0.837251
      pz      :     0.004303  p :     0.022112
      px      :     0.011982
      py      :     0.005827
 10 H s       :     0.870021  s :     0.870021
      pz      :     0.012264  p :     0.021614
      px      :     0.004294
      py      :     0.005057
 11 H s       :     0.874010  s :     0.874010
      pz      :     0.007776  p :     0.021525
      px      :     0.008941
      py      :     0.004808
 12 H s       :     0.888974  s :     0.888974
      pz      :     0.004486  p :     0.022555
      px      :     0.011899
      py      :     0.006170
 13 H s       :     0.850061  s :     0.850061
      pz      :     0.011454  p :     0.021540
      px      :     0.005187
      py      :     0.004899
 14 H s       :     0.848979  s :     0.848979
      pz      :     0.003679  p :     0.022060
      px      :     0.003653
      py      :     0.014729
 15 H s       :     0.871543  s :     0.871543
      pz      :     0.005336  p :     0.021757
      px      :     0.011828
      py      :     0.004593
 16 H s       :     0.856244  s :     0.856244
      pz      :     0.007601  p :     0.021846
      px      :     0.009313
      py      :     0.004932
 17 H s       :     0.862983  s :     0.862983
      pz      :     0.005034  p :     0.021689
      px      :     0.013086
      py      :     0.003568
 18 H s       :     0.853850  s :     0.853850
      pz      :     0.005811  p :     0.021841
      px      :     0.003695
      py      :     0.012335
 19 H s       :     0.855833  s :     0.855833
      pz      :     0.010942  p :     0.021759
      px      :     0.007251
      py      :     0.003566
 20 H s       :     0.844763  s :     0.844763
      pz      :     0.008640  p :     0.023431
      px      :     0.004601
      py      :     0.010190


                     *******************************
                     * LOEWDIN POPULATION ANALYSIS *
                     *******************************

----------------------
LOEWDIN ATOMIC CHARGES
----------------------
   0 C :   -0.268256
   1 C :   -0.168690
   2 C :   -0.185706
   3 O :    0.104167
   4 C :   -0.232135
   5 C :   -0.233762
   6 C :   -0.124726
   7 C :   -0.244112
   8 C :   -0.110914
   9 H :    0.122683
  10 H :    0.113619
  11 H :    0.112742
  12 H :    0.133359
  13 H :    0.121174
  14 H :    0.122388
  15 H :    0.120885
  16 H :    0.124435
  17 H :    0.120597
  18 H :    0.123063
  19 H :    0.123026
  20 H :    0.126163

-------------------------------
LOEWDIN REDUCED ORBITAL CHARGES
-------------------------------
  0 C s       :     2.822224  s :     2.822224
      pz      :     1.053458  p :     3.145184
      px      :     1.057001
      py      :     1.034725
      dz2     :     0.042066  d :     0.275993
      dxz     :     0.039576
      dyz     :     0.065837
      dx2y2   :     0.055667
      dxy     :     0.072847
      f0      :     0.003294  f :     0.024855
      f+1     :     0.001646
      f-1     :     0.003517
      f+2     :     0.004315
      f-2     :     0.002288
      f+3     :     0.004845
      f-3     :     0.004950
  1 C s       :     2.746451  s :     2.746451
      pz      :     0.914214  p :     2.875761
      px      :     0.960836
      py      :     1.000710
      dz2     :     0.074997  d :     0.496332
      dxz     :     0.080333
      dyz     :     0.097718
      dx2y2   :     0.127961
      dxy     :     0.115324
      f0      :     0.006318  f :     0.050146
      f+1     :     0.006411
      f-1     :     0.005051
      f+2     :     0.009413
      f-2     :     0.006838
      f+3     :     0.008900
      f-3     :     0.007215
  2 C s       :     2.748297  s :     2.748297
      pz      :     0.857517  p :     2.735079
      px      :     0.903581
      py      :     0.973981
      dz2     :     0.143707  d :     0.612086
      dxz     :     0.147864
      dyz     :     0.108718
      dx2y2   :     0.112436
      dxy     :     0.099361
      f0      :     0.015245  f :     0.090245
      f+1     :     0.018283
      f-1     :     0.011200
      f+2     :     0.015305
      f-2     :     0.013363
      f+3     :     0.010239
      f-3     :     0.006609
  3 O s       :     3.348383  s :     3.348383
      pz      :     1.257737  p :     4.457571
      px      :     1.492254
      py      :     1.707579
      dz2     :     0.018277  d :     0.083937
      dxz     :     0.026081
      dyz     :     0.013167
      dx2y2   :     0.015898
      dxy     :     0.010514
      f0      :     0.000916  f :     0.005943
      f+1     :     0.001453
      f-1     :     0.000494
      f+2     :     0.001023
      f-2     :     0.000891
      f+3     :     0.000696
      f-3     :     0.000469
  4 C s       :     2.703735  s :     2.703735
      pz      :     0.973009  p :     2.697671
      px      :     0.788309
      py      :     0.936353
      dz2     :     0.199373  d :     0.729507
      dxz     :     0.153411
      dyz     :     0.125119
      dx2y2   :     0.144596
      dxy     :     0.107008
      f0      :     0.015641  f :     0.101223
      f+1     :     0.017758
      f-1     :     0.010966
      f+2     :     0.016466
      f-2     :     0.013909
      f+3     :     0.014665
      f-3     :     0.011818
  5 C s       :     2.816290  s :     2.816290
      pz      :     1.027079  p :     3.128372
      px      :     1.049915
      py      :     1.051378
      dz2     :     0.067912  d :     0.264392
      dxz     :     0.071013
      dyz     :     0.051290
      dx2y2   :     0.056412
      dxy     :     0.017765
      f0      :     0.006076  f :     0.024708
      f+1     :     0.003463
      f-1     :     0.005887
      f+2     :     0.002150
      f-2     :     0.003645
      f+3     :     0.000466
      f-3     :     0.003021
  6 C s       :     2.721874  s :     2.721874
      pz      :     1.045742  p :     2.830848
      px      :     0.837217
      py      :     0.947889
      dz2     :     0.127139  d :     0.514666
      dxz     :     0.083452
      dyz     :     0.162985
      dx2y2   :     0.077917
      dxy     :     0.063172
      f0      :     0.009212  f :     0.057338
      f+1     :     0.007166
      f-1     :     0.017603
      f+2     :     0.005714
      f-2     :     0.005937
      f+3     :     0.005763
      f-3     :     0.005944
  7 C s       :     2.811805  s :     2.811805
      pz      :     1.043061  p :     3.128569
      px      :     1.049906
      py      :     1.035602
      dz2     :     0.049316  d :     0.278649
      dxz     :     0.064970
      dyz     :     0.060616
      dx2y2   :     0.079794
      dxy     :     0.023954
      f0      :     0.003675  f :     0.025089
      f+1     :     0.003313
      f-1     :     0.003972
      f+2     :     0.004564
      f-2     :     0.003086
      f+3     :     0.003481
      f-3     :     0.002998
  8 C s       :     2.770249  s :     2.770249
      pz      :     1.040529  p :     2.935190
      px      :     0.934401
      py      :     0.960261
      dz2     :     0.078792  d :     0.360448
      dxz     :     0.040559
      dyz     :     0.139909
      dx2y2   :     0.049450
      dxy     :     0.051738
      f0      :     0.008987  f :     0.045027
      f+1     :     0.006616
      f-1     :     0.012398
      f+2     :     0.003985
      f-2     :     0.002915
      f+3     :     0.005198
      f-3     :     0.004928
  9 H s       :     0.816024  s :     0.816024
      pz      :     0.013852  p :     0.061293
      px      :     0.031800
      py      :     0.015641
 10 H s       :     0.826978  s :     0.826978
      pz      :     0.031392  p :     0.059403
      px      :     0.013912
      py      :     0.014099
 11 H s       :     0.827920  s :     0.827920
      pz      :     0.021568  p :     0.059338
      px      :     0.024139
      py      :     0.013631
 12 H s       :     0.809394  s :     0.809394
      pz      :     0.013543  p :     0.057247
      px      :     0.027619
      py      :     0.016085
 13 H s       :     0.821202  s :     0.821202
      pz      :     0.028624  p :     0.057623
      px      :     0.014979
      py      :     0.014021
 14 H s       :     0.817576  s :     0.817576
      pz      :     0.011524  p :     0.060036
      px      :     0.012159
      py      :     0.036353
 15 H s       :     0.819835  s :     0.819835
      pz      :     0.014337  p :     0.059280
      px      :     0.030109
      py      :     0.014834
 16 H s       :     0.815680  s :     0.815680
      pz      :     0.019215  p :     0.059885
      px      :     0.025093
      py      :     0.015578
 17 H s       :     0.820499  s :     0.820499
      pz      :     0.014341  p :     0.058903
      px      :     0.032733
      py      :     0.011830
 18 H s       :     0.817663  s :     0.817663
      pz      :     0.017611  p :     0.059274
      px      :     0.012162
      py      :     0.029502
 19 H s       :     0.817807  s :     0.817807
      pz      :     0.027017  p :     0.059167
      px      :     0.020707
      py      :     0.011443
 20 H s       :     0.811430  s :     0.811430
      pz      :     0.021748  p :     0.062407
      px      :     0.014433
      py      :     0.026226


                      *****************************
                      * MAYER POPULATION ANALYSIS *
                      *****************************

  NA   - Mulliken gross atomic population
  ZA   - Total nuclear charge
  QA   - Mulliken gross atomic charge
  VA   - Mayer's total valence
  BVA  - Mayer's bonded valence
  FA   - Mayer's free valence

  ATOM       NA         ZA         QA         VA         BVA        FA
  0 C      6.4176     6.0000    -0.4176     3.9305     3.9305     0.0000
  1 C      5.9319     6.0000     0.0681     3.7988     3.7988     0.0000
  2 C      5.8548     6.0000     0.1452     3.9142     3.9142     0.0000
  3 O      8.4305     8.0000    -0.4305     1.8759     1.8759     0.0000
  4 C      5.7359     6.0000     0.2641     3.6953     3.6953    -0.0000
  5 C      6.3687     6.0000    -0.3687     3.8463     3.8463    -0.0000
  6 C      6.0487     6.0000    -0.0487     3.7254     3.7254    -0.0000
  7 C      6.3763     6.0000    -0.3763     3.8931     3.8931    -0.0000
  8 C      6.2574     6.0000    -0.2574     3.9435     3.9435     0.0000
  9 H      0.8594     1.0000     0.1406     0.9765     0.9765     0.0000
 10 H      0.8916     1.0000     0.1084     0.9706     0.9706     0.0000
 11 H      0.8955     1.0000     0.1045     0.9699     0.9699     0.0000
 12 H      0.9115     1.0000     0.0885     0.9675     0.9675     0.0000
 13 H      0.8716     1.0000     0.1284     0.9608     0.9608     0.0000
 14 H      0.8710     1.0000     0.1290     0.9687     0.9687    -0.0000
 15 H      0.8933     1.0000     0.1067     0.9700     0.9700     0.0000
 16 H      0.8781     1.0000     0.1219     0.9755     0.9755    -0.0000
 17 H      0.8847     1.0000     0.1153     0.9613     0.9613    -0.0000
 18 H      0.8757     1.0000     0.1243     0.9676     0.9676    -0.0000
 19 H      0.8776     1.0000     0.1224     0.9590     0.9590     0.0000
 20 H      0.8682     1.0000     0.1318     0.9805     0.9805    -0.0000

  Mayer bond orders larger than 0.1
B(  0-C ,  1-C ) :   0.9333 B(  0-C ,  9-H ) :   0.9974 B(  0-C , 10-H ) :   0.9872 
B(  0-C , 11-H ) :   0.9867 B(  1-C ,  2-C ) :   1.0248 B(  1-C ,  4-C ) :   0.9684 
B(  1-C , 12-H ) :   0.9556 B(  2-C ,  3-O ) :   0.9061 B(  2-C ,  8-C ) :   0.9935 
B(  2-C , 13-H ) :   0.9417 B(  3-O ,  4-C ) :   0.9383 B(  4-C ,  5-C ) :   0.8525 
B(  4-C ,  6-C ) :   0.9758 B(  5-C , 14-H ) :   1.0008 B(  5-C , 15-H ) :   0.9909 
B(  5-C , 16-H ) :   1.0018 B(  6-C ,  7-C ) :   0.9082 B(  6-C ,  8-C ) :   1.9687 
B(  7-C , 17-H ) :   0.9906 B(  7-C , 18-H ) :   1.0002 B(  7-C , 19-H ) :   0.9955 
B(  8-C , 20-H ) :   0.9678 

-------
TIMINGS
-------

Total SCF time: 0 days 0 hours 3 min 5 sec 

Total time                  ....     185.161 sec
Sum of individual times     ....     190.156 sec  (102.7%)

Fock matrix formation       ....     183.401 sec  ( 99.0%)
Diagonalization             ....       0.788 sec  (  0.4%)
Density matrix formation    ....       0.049 sec  (  0.0%)
Population analysis         ....       0.181 sec  (  0.1%)
Initial guess               ....       3.499 sec  (  1.9%)
Orbital Transformation      ....       0.000 sec  (  0.0%)
Orbital Orthonormalization  ....       0.000 sec  (  0.0%)
DIIS solution               ....       0.242 sec  (  0.1%)
SOSCF solution              ....       0.348 sec  (  0.2%)

   <<< Auxbasis replaced with dsgdb9nsd_080852.AUXC.tmp (Dim=864) >>> 


------------------------------------------------------------------------------
                              ORCA MP2 CALCULATION
------------------------------------------------------------------------------

Freezing NCore=18 chemical core electrons

   <<< Use J-auxbasis for calculation of Separable RI-J derivative contributions dsgdb9nsd_080852.AUXJ.tmp (Dim=893) >>> 


---------------------
RI-MP2 ENERGY+DENSITY
---------------------
Dimension of the basis                    ...  351
Memory devoted to MP2                     ... 2000 MB   
Data format for buffers                   ... DOUBLE
Compression type for matrix containers    ... UNCOMPRESSED
Overall scaling of the MP2 energy         ...   1.000e+00 Eh
Calculating two index integrals           ... done (    0.019 sec)
Cholesky decomposition of V**-1           ... done (    0.124 sec)

-----------------
RI-TRANSFORMATION (AUX index driven)
-----------------

Dimension of the orbital-basis         ... 351
Dimension of the aux-basis             ... 864
Transformation of internal MOs         ...    0-  33
Transformation of internal/external MOs...    0-  33 to   34- 350
Number Format for Storage              ... Double (8 Byte)
Integral mode                          ... Direct

First Phase: integral generation and transformation of MO indices
  Aux angular momentum 0               ... done (    0.942 sec)
  Aux angular momentum 1               ... done (    1.246 sec)
  Aux angular momentum 2               ... done (    1.319 sec)
  Aux angular momentum 3               ... done (    0.960 sec)
  Aux angular momentum 4               ... done (    0.441 sec)
Closing buffer VIJ ( 0.00 GB; CompressionRatio= 1.94)
Closing buffer VIA ( 0.07 GB; CompressionRatio= 1.00)
  Phase 1 completed in     5.007 sec
Second Phase: sorting and transformation of aux index

IJ-Transformation
Memory available                       ... 1985 MB 
Max. # MO pairs treated in a batch     ... 34    
# of internal orbitals                 ... 34
# batches for internal orbitals        ... 1
Closing buffer IJV ( 0.00 GB; CompressionRatio= 1.00)
(ij|v) transformation done in     0.200 sec

IA-Transformation
Memory available                       ... 1985 MB 
Max. # MO pairs treated in a batch     ... 34    
# of internal orbitals                 ... 34
# batches for internal orbitals        ... 1
Closing buffer IAV ( 0.07 GB; CompressionRatio= 1.00)
(ia|v) transformation done in     3.076 sec

  Phase 2 completed in     3.314 sec
RI-Integral transformation completed in     8.321 sec
Opening buffers                              ... done
Frozen core precalculation                   ... done

Starting loop over batches of integrals:

Operator 0  - window                       ... (  9- 33)x( 34-350)
Operator 0  - Memory available             ...  2000 MB
Operator 0  - Memory needed per MO         ...   4.2 MB
Operator 0  - Number of orbitals per batch ... 25
Operator 0  - Number of batches            ... 1

OPERATOR  0   PASS   0:  MOs     9 ...   33
  Reading integrals       ... ok
  Internal MO  11
  Internal MO  14
  Internal MO  17
  Internal MO  20
  Internal MO  23
  Internal MO  26
  Internal MO  29
  Internal MO  32
Time spent in pair loops =    47.309 sec
Deleting buffer (Ka|jb)[aa] ...done

-----------------------------------------------
 RI-MP2 CORRELATION ENERGY:     -1.543570493 Eh
-----------------------------------------------


---------------------
MP2 DENSITY FORMATION
---------------------

Completing the external part of the density      ... done
Storing the unrelaxed density                    ... done

Calculating G(D)                                 ... done
Completing the Lagrangian                        ... done
Solving the Z-vector equations                   ... 

------------------------------------------------------------------------------
                           ORCA CP-SCF CALCULATION
------------------------------------------------------------------------------

Input orbitals are from        ... dsgdb9nsd_080852.gbw
Input Perturbation             ... dsgdb9nsd_080852.pin.tmp
Wavefunction output            ... dsgdb9nsd_080852.pout.tmp
Perturbation mode              ... Real perturbation
Solver                         ... POPLE
Max. number of iterations      ... 128
Convergence tolerance          ... 1.000e-08
Integral handling              ... Direct
Number of perturbations        ... 1
Number of operators            ... 1
Orbital ranges used for CP-SCF:
 Operator 0:  Orbitals   0... 33  to  34...350
Variables per vector in CP-SCF ... 10778
Number of vectors sought       ... 1
     CP-SCF ITERATION   0: 
     CP-SCF ITERATION   1:      0.001197307
     CP-SCF ITERATION   2:      0.000199301
     CP-SCF ITERATION   3:      0.000012573
     CP-SCF ITERATION   4:      0.000001963
     CP-SCF ITERATION   5:      0.000000378
     CP-SCF ITERATION   6:      0.000000045
     CP-SCF ITERATION   7:      0.000000004
done
Finalizing the relaxed density                   ... done
Transforming P to the AO basis                   ... done
Storing the relaxed density                      ... done

                *********************************************
                * UNRELAXED MP2 DENSITY POPULATION ANALYSIS *
                *********************************************

------------------------------------------------------------------------------
                           ORCA POPULATION ANALYSIS
------------------------------------------------------------------------------
Input electron density              ... dsgdb9nsd_080852.pmp2ur
BaseName (.gbw .S,...)              ... dsgdb9nsd_080852

                    ********************************
                    * MULLIKEN POPULATION ANALYSIS *
                    ********************************

-----------------------
MULLIKEN ATOMIC CHARGES
-----------------------
   0 C :   -0.425698
   1 C :    0.060054
   2 C :    0.131701
   3 O :   -0.406999
   4 C :    0.249746
   5 C :   -0.377494
   6 C :   -0.050036
   7 C :   -0.385581
   8 C :   -0.258961
   9 H :    0.143291
  10 H :    0.111849
  11 H :    0.107918
  12 H :    0.092924
  13 H :    0.132277
  14 H :    0.132314
  15 H :    0.110102
  16 H :    0.125294
  17 H :    0.118608
  18 H :    0.127524
  19 H :    0.125589
  20 H :    0.135579
Sum of atomic charges:    0.0000000

--------------------------------
MULLIKEN REDUCED ORBITAL CHARGES
--------------------------------
  0 C s       :     3.271428  s :     3.271428
      pz      :     1.052602  p :     3.045240
      px      :     1.063239
      py      :     0.929399
      dz2     :     0.017327  d :     0.100780
      dxz     :     0.017666
      dyz     :     0.021181
      dx2y2   :     0.019165
      dxy     :     0.025441
      f0      :     0.001222  f :     0.008250
      f+1     :     0.001063
      f-1     :     0.001117
      f+2     :     0.001210
      f-2     :     0.000672
      f+3     :     0.001323
      f-3     :     0.001642
  1 C s       :     3.078924  s :     3.078924
      pz      :     0.891564  p :     2.697888
      px      :     0.914867
      py      :     0.891458
      dz2     :     0.025909  d :     0.149960
      dxz     :     0.027522
      dyz     :     0.031015
      dx2y2   :     0.034137
      dxy     :     0.031377
      f0      :     0.001756  f :     0.013173
      f+1     :     0.001713
      f-1     :     0.001434
      f+2     :     0.002107
      f-2     :     0.001517
      f+3     :     0.002173
      f-3     :     0.002473
  2 C s       :     3.066210  s :     3.066210
      pz      :     0.848237  p :     2.609336
      px      :     0.849847
      py      :     0.911252
      dz2     :     0.033983  d :     0.174427
      dxz     :     0.039189
      dyz     :     0.034279
      dx2y2   :     0.034392
      dxy     :     0.032585
      f0      :     0.002902  f :     0.018326
      f+1     :     0.003486
      f-1     :     0.002577
      f+2     :     0.002867
      f-2     :     0.002533
      f+3     :     0.002076
      f-3     :     0.001886
  3 O s       :     3.801231  s :     3.801231
      pz      :     1.249924  p :     4.533930
      px      :     1.483328
      py      :     1.800679
      dz2     :     0.012360  d :     0.067240
      dxz     :     0.019322
      dyz     :     0.011145
      dx2y2   :     0.012407
      dxy     :     0.012006
      f0      :     0.000579  f :     0.004598
      f+1     :     0.000708
      f-1     :     0.000542
      f+2     :     0.000731
      f-2     :     0.000675
      f+3     :     0.000644
      f-3     :     0.000718
  4 C s       :     3.164119  s :     3.164119
      pz      :     0.773314  p :     2.333250
      px      :     0.711815
      py      :     0.848120
      dz2     :     0.054054  d :     0.232079
      dxz     :     0.049025
      dyz     :     0.042366
      dx2y2   :     0.048425
      dxy     :     0.038209
      f0      :     0.003629  f :     0.020806
      f+1     :     0.003420
      f-1     :     0.002799
      f+2     :     0.003049
      f-2     :     0.002458
      f+3     :     0.002904
      f-3     :     0.002547
  5 C s       :     3.295773  s :     3.295773
      pz      :     0.893563  p :     2.980473
      px      :     1.034264
      py      :     1.052645
      dz2     :     0.018501  d :     0.093179
      dxz     :     0.022807
      dyz     :     0.018298
      dx2y2   :     0.021343
      dxy     :     0.012231
      f0      :     0.001738  f :     0.008069
      f+1     :     0.001168
      f-1     :     0.001429
      f+2     :     0.000967
      f-2     :     0.000738
      f+3     :     0.000616
      f-3     :     0.001412
  6 C s       :     3.216683  s :     3.216683
      pz      :     0.923976  p :     2.659874
      px      :     0.903423
      py      :     0.832475
      dz2     :     0.040880  d :     0.158297
      dxz     :     0.032264
      dyz     :     0.042767
      dx2y2   :     0.024169
      dxy     :     0.018217
      f0      :     0.002449  f :     0.015181
      f+1     :     0.001972
      f-1     :     0.003447
      f+2     :     0.002245
      f-2     :     0.001710
      f+3     :     0.001538
      f-3     :     0.001821
  7 C s       :     3.299080  s :     3.299080
      pz      :     1.002376  p :     2.977175
      px      :     1.024636
      py      :     0.950163
      dz2     :     0.020040  d :     0.101165
      dxz     :     0.023613
      dyz     :     0.018696
      dx2y2   :     0.026566
      dxy     :     0.012250
      f0      :     0.000898  f :     0.008162
      f+1     :     0.001083
      f-1     :     0.001135
      f+2     :     0.002193
      f-2     :     0.000966
      f+3     :     0.000962
      f-3     :     0.000924
  8 C s       :     3.186337  s :     3.186337
      pz      :     0.942082  p :     2.943067
      px      :     1.032322
      py      :     0.968663
      dz2     :     0.028179  d :     0.116860
      dxz     :     0.020788
      dyz     :     0.034048
      dx2y2   :     0.018067
      dxy     :     0.015778
      f0      :     0.002205  f :     0.012697
      f+1     :     0.001764
      f-1     :     0.002719
      f+2     :     0.001916
      f-2     :     0.001212
      f+3     :     0.001336
      f-3     :     0.001545
  9 H s       :     0.831509  s :     0.831509
      pz      :     0.005406  p :     0.025199
      px      :     0.012889
      py      :     0.006904
 10 H s       :     0.863398  s :     0.863398
      pz      :     0.013189  p :     0.024753
      px      :     0.005400
      py      :     0.006164
 11 H s       :     0.867394  s :     0.867394
      pz      :     0.008812  p :     0.024688
      px      :     0.009950
      py      :     0.005927
 12 H s       :     0.881273  s :     0.881273
      pz      :     0.005662  p :     0.025802
      px      :     0.012872
      py      :     0.007268
 13 H s       :     0.842996  s :     0.842996
      pz      :     0.012421  p :     0.024727
      px      :     0.006292
      py      :     0.006014
 14 H s       :     0.842548  s :     0.842548
      pz      :     0.004811  p :     0.025138
      px      :     0.004760
      py      :     0.015567
 15 H s       :     0.865021  s :     0.865021
      pz      :     0.006422  p :     0.024877
      px      :     0.012754
      py      :     0.005702
 16 H s       :     0.849794  s :     0.849794
      pz      :     0.008629  p :     0.024911
      px      :     0.010268
      py      :     0.006014
 17 H s       :     0.856605  s :     0.856605
      pz      :     0.006113  p :     0.024787
      px      :     0.013978
      py      :     0.004696
 18 H s       :     0.847579  s :     0.847579
      pz      :     0.006857  p :     0.024897
      px      :     0.004795
      py      :     0.013244
 19 H s       :     0.849577  s :     0.849577
      pz      :     0.011877  p :     0.024834
      px      :     0.008268
      py      :     0.004689
 20 H s       :     0.837940  s :     0.837940
      pz      :     0.009622  p :     0.026481
      px      :     0.005720
      py      :     0.011138


                     *******************************
                     * LOEWDIN POPULATION ANALYSIS *
                     *******************************

----------------------
LOEWDIN ATOMIC CHARGES
----------------------
   0 C :   -0.274417
   1 C :   -0.171506
   2 C :   -0.192926
   3 O :    0.120513
   4 C :   -0.236903
   5 C :   -0.240290
   6 C :   -0.126299
   7 C :   -0.250206
   8 C :   -0.114215
   9 H :    0.124380
  10 H :    0.115538
  11 H :    0.114634
  12 H :    0.135064
  13 H :    0.123014
  14 H :    0.124276
  15 H :    0.122719
  16 H :    0.126327
  17 H :    0.122437
  18 H :    0.124901
  19 H :    0.124873
  20 H :    0.128087

-------------------------------
LOEWDIN REDUCED ORBITAL CHARGES
-------------------------------
  0 C s       :     2.820463  s :     2.820463
      pz      :     1.045951  p :     3.120133
      px      :     1.049360
      py      :     1.024822
      dz2     :     0.047959  d :     0.303509
      dxz     :     0.045397
      dyz     :     0.070774
      dx2y2   :     0.061665
      dxy     :     0.077714
      f0      :     0.004027  f :     0.030313
      f+1     :     0.002366
      f-1     :     0.004368
      f+2     :     0.005043
      f-2     :     0.002995
      f+3     :     0.005578
      f-3     :     0.005935
  1 C s       :     2.744799  s :     2.744799
      pz      :     0.905679  p :     2.849463
      px      :     0.952898
      py      :     0.990886
      dz2     :     0.080130  d :     0.520428
      dxz     :     0.085825
      dyz     :     0.101988
      dx2y2   :     0.132731
      dxy     :     0.119754
      f0      :     0.007127  f :     0.056816
      f+1     :     0.007285
      f-1     :     0.005990
      f+2     :     0.010261
      f-2     :     0.007799
      f+3     :     0.009821
      f-3     :     0.008533
  2 C s       :     2.747585  s :     2.747585
      pz      :     0.855105  p :     2.718291
      px      :     0.897720
      py      :     0.965466
      dz2     :     0.146601  d :     0.631144
      dxz     :     0.151196
      dyz     :     0.112801
      dx2y2   :     0.116982
      dxy     :     0.103564
      f0      :     0.015889  f :     0.095906
      f+1     :     0.019187
      f-1     :     0.012123
      f+2     :     0.016001
      f-2     :     0.014085
      f+3     :     0.010984
      f-3     :     0.007636
  3 O s       :     3.344503  s :     3.344503
      pz      :     1.244118  p :     4.410409
      px      :     1.476305
      py      :     1.689986
      dz2     :     0.024355  d :     0.115481
      dxz     :     0.032577
      dyz     :     0.019357
      dx2y2   :     0.022305
      dxy     :     0.016889
      f0      :     0.001354  f :     0.009093
      f+1     :     0.001939
      f-1     :     0.000910
      f+2     :     0.001479
      f-2     :     0.001349
      f+3     :     0.001135
      f-3     :     0.000926
  4 C s       :     2.703052  s :     2.703052
      pz      :     0.964041  p :     2.679570
      px      :     0.787250
      py      :     0.928279
      dz2     :     0.201726  d :     0.746634
      dxz     :     0.156084
      dyz     :     0.129422
      dx2y2   :     0.148272
      dxy     :     0.111130
      f0      :     0.016836  f :     0.107647
      f+1     :     0.018614
      f-1     :     0.012170
      f+2     :     0.017332
      f-2     :     0.014643
      f+3     :     0.015327
      f-3     :     0.012726
  5 C s       :     2.814574  s :     2.814574
      pz      :     1.017405  p :     3.102949
      px      :     1.042142
      py      :     1.043403
      dz2     :     0.073565  d :     0.292513
      dxz     :     0.076451
      dyz     :     0.056701
      dx2y2   :     0.062064
      dxy     :     0.023732
      f0      :     0.007035  f :     0.030255
      f+1     :     0.004277
      f-1     :     0.006774
      f+2     :     0.002895
      f-2     :     0.004358
      f+3     :     0.001110
      f-3     :     0.003806
  6 C s       :     2.719481  s :     2.719481
      pz      :     1.034713  p :     2.804061
      px      :     0.831342
      py      :     0.938005
      dz2     :     0.132111  d :     0.538281
      dxz     :     0.088079
      dyz     :     0.166292
      dx2y2   :     0.083598
      dxy     :     0.068201
      f0      :     0.010669  f :     0.064476
      f+1     :     0.008230
      f-1     :     0.018708
      f+2     :     0.006859
      f-2     :     0.006797
      f+3     :     0.006465
      f-3     :     0.006748
  7 C s       :     2.810096  s :     2.810096
      pz      :     1.034666  p :     3.103291
      px      :     1.041871
      py      :     1.026754
      dz2     :     0.054606  d :     0.306097
      dxz     :     0.070344
      dyz     :     0.066392
      dx2y2   :     0.085076
      dxy     :     0.029678
      f0      :     0.004417  f :     0.030722
      f+1     :     0.004066
      f-1     :     0.004751
      f+2     :     0.005624
      f-2     :     0.003862
      f+3     :     0.004264
      f-3     :     0.003738
  8 C s       :     2.768048  s :     2.768048
      pz      :     1.030010  p :     2.906046
      px      :     0.924681
      py      :     0.951355
      dz2     :     0.085414  d :     0.388736
      dxz     :     0.047138
      dyz     :     0.143528
      dx2y2   :     0.055815
      dxy     :     0.056841
      f0      :     0.010270  f :     0.051385
      f+1     :     0.007630
      f-1     :     0.013443
      f+2     :     0.004927
      f-2     :     0.003636
      f+3     :     0.005821
      f-3     :     0.005658
  9 H s       :     0.809062  s :     0.809062
      pz      :     0.015236  p :     0.066558
      px      :     0.034020
      py      :     0.017302
 10 H s       :     0.819753  s :     0.819753
      pz      :     0.033816  p :     0.064709
      px      :     0.015287
      py      :     0.015607
 11 H s       :     0.820680  s :     0.820680
      pz      :     0.023410  p :     0.064685
      px      :     0.026154
      py      :     0.015121
 12 H s       :     0.801865  s :     0.801865
      pz      :     0.015075  p :     0.063071
      px      :     0.030168
      py      :     0.017828
 13 H s       :     0.813936  s :     0.813936
      pz      :     0.030968  p :     0.063050
      px      :     0.016565
      py      :     0.015516
 14 H s       :     0.810460  s :     0.810460
      pz      :     0.012887  p :     0.065264
      px      :     0.013434
      py      :     0.038942
 15 H s       :     0.812705  s :     0.812705
      pz      :     0.015873  p :     0.064577
      px      :     0.032443
      py      :     0.016260
 16 H s       :     0.808587  s :     0.808587
      pz      :     0.021046  p :     0.065086
      px      :     0.027010
      py      :     0.017030
 17 H s       :     0.813393  s :     0.813393
      pz      :     0.015812  p :     0.064169
      px      :     0.035196
      py      :     0.013162
 18 H s       :     0.810615  s :     0.810615
      pz      :     0.019165  p :     0.064484
      px      :     0.013424
      py      :     0.031895
 19 H s       :     0.810740  s :     0.810740
      pz      :     0.029233  p :     0.064386
[...]
      py      :     0.875505
      dz2     :     0.053340  d :     0.226249
      dxz     :     0.046402
      dyz     :     0.044343
      dx2y2   :     0.044645
      dxy     :     0.037519
      f0      :     0.003490  f :     0.019876
      f+1     :     0.003321
      f-1     :     0.002644
      f+2     :     0.002962
      f-2     :     0.002297
      f+3     :     0.002865
      f-3     :     0.002297
  5 C s       :     3.308475  s :     3.308475
      pz      :     0.910976  p :     3.040947
      px      :     1.057380
      py      :     1.072591
      dz2     :     0.015769  d :     0.082113
      dxz     :     0.020913
      dyz     :     0.017441
      dx2y2   :     0.017554
      dxy     :     0.010435
      f0      :     0.001616  f :     0.007725
      f+1     :     0.001163
      f-1     :     0.001340
      f+2     :     0.000941
      f-2     :     0.000727
      f+3     :     0.000613
      f-3     :     0.001325
  6 C s       :     3.171985  s :     3.171985
      pz      :     0.900140  p :     2.640281
      px      :     0.910070
      py      :     0.830071
      dz2     :     0.035697  d :     0.141889
      dxz     :     0.026804
      dyz     :     0.038392
      dx2y2   :     0.021354
      dxy     :     0.019642
      f0      :     0.002169  f :     0.014310
      f+1     :     0.001794
      f-1     :     0.003412
      f+2     :     0.002017
      f-2     :     0.001684
      f+3     :     0.001546
      f-3     :     0.001688
  7 C s       :     3.307252  s :     3.307252
      pz      :     1.024498  p :     3.046004
      px      :     1.050080
      py      :     0.971426
      dz2     :     0.019383  d :     0.090328
      dxz     :     0.020505
      dyz     :     0.015127
      dx2y2   :     0.022954
      dxy     :     0.012360
      f0      :     0.000860  f :     0.007839
      f+1     :     0.001040
      f-1     :     0.001124
      f+2     :     0.002034
      f-2     :     0.000946
      f+3     :     0.000931
      f-3     :     0.000905
  8 C s       :     3.219693  s :     3.219693
      pz      :     0.942695  p :     2.908736
      px      :     1.020463
      py      :     0.945578
      dz2     :     0.023592  d :     0.103533
      dxz     :     0.016779
      dyz     :     0.031679
      dx2y2   :     0.014572
      dxy     :     0.016911
      f0      :     0.001999  f :     0.011996
      f+1     :     0.001619
      f-1     :     0.002618
      f+2     :     0.001794
      f-2     :     0.001213
      f+3     :     0.001335
      f-3     :     0.001420
  9 H s       :     0.817730  s :     0.817730
      pz      :     0.005537  p :     0.024238
      px      :     0.011860
      py      :     0.006840
 10 H s       :     0.841033  s :     0.841033
      pz      :     0.012049  p :     0.023862
      px      :     0.005589
      py      :     0.006224
 11 H s       :     0.843923  s :     0.843923
      pz      :     0.008410  p :     0.023772
      px      :     0.009358
      py      :     0.006003
 12 H s       :     0.871411  s :     0.871411
      pz      :     0.005764  p :     0.024687
      px      :     0.011886
      py      :     0.007037
 13 H s       :     0.843312  s :     0.843312
      pz      :     0.011474  p :     0.023731
      px      :     0.006226
      py      :     0.006031
 14 H s       :     0.824092  s :     0.824092
      pz      :     0.005078  p :     0.024144
      px      :     0.005016
      py      :     0.014050
 15 H s       :     0.841294  s :     0.841294
      pz      :     0.006409  p :     0.023950
      px      :     0.011720
      py      :     0.005822
 16 H s       :     0.829148  s :     0.829148
      pz      :     0.008289  p :     0.023939
      px      :     0.009585
      py      :     0.006066
 17 H s       :     0.834803  s :     0.834803
      pz      :     0.006173  p :     0.023826
      px      :     0.012703
      py      :     0.004950
 18 H s       :     0.830245  s :     0.830245
      pz      :     0.006737  p :     0.023930
      px      :     0.005049
      py      :     0.012144
 19 H s       :     0.828350  s :     0.828350
      pz      :     0.010953  p :     0.023838
      px      :     0.007948
      py      :     0.004937
 20 H s       :     0.846379  s :     0.846379
      pz      :     0.009117  p :     0.025332
      px      :     0.005839
      py      :     0.010376


                     *******************************
                     * LOEWDIN POPULATION ANALYSIS *
                     *******************************

----------------------
LOEWDIN ATOMIC CHARGES
----------------------
   0 C :   -0.299881
   1 C :   -0.184835
   2 C :   -0.217645
   3 O :    0.166053
   4 C :   -0.260099
   5 C :   -0.265594
   6 C :   -0.138793
   7 C :   -0.276184
   8 C :   -0.115835
   9 H :    0.131712
  10 H :    0.125835
  11 H :    0.124840
  12 H :    0.143259
  13 H :    0.130665
  14 H :    0.133080
  15 H :    0.133499
  16 H :    0.135950
  17 H :    0.132438
  18 H :    0.133386
  19 H :    0.134368
  20 H :    0.133777

-------------------------------
LOEWDIN REDUCED ORBITAL CHARGES
-------------------------------
  0 C s       :     2.825974  s :     2.825974
      pz      :     1.060884  p :     3.154038
      px      :     1.064143
      py      :     1.029010
      dz2     :     0.043861  d :     0.289958
      dxz     :     0.041274
      dyz     :     0.070357
      dx2y2   :     0.058134
      dxy     :     0.076333
      f0      :     0.003969  f :     0.029911
      f+1     :     0.002298
      f-1     :     0.004288
      f+2     :     0.005009
      f-2     :     0.002914
      f+3     :     0.005617
      f-3     :     0.005815
  1 C s       :     2.753894  s :     2.753894
      pz      :     0.909143  p :     2.860689
      px      :     0.958375
      py      :     0.993171
      dz2     :     0.077190  d :     0.513901
      dxz     :     0.082462
      dyz     :     0.103538
      dx2y2   :     0.130646
      dxy     :     0.120065
      f0      :     0.007024  f :     0.056352
      f+1     :     0.007228
      f-1     :     0.005875
      f+2     :     0.010269
      f-2     :     0.007759
      f+3     :     0.009889
      f-3     :     0.008307
  2 C s       :     2.757256  s :     2.757256
      pz      :     0.863886  p :     2.739891
      px      :     0.906480
      py      :     0.969526
      dz2     :     0.142882  d :     0.625750
      dxz     :     0.148898
      dyz     :     0.113690
      dx2y2   :     0.117122
      dxy     :     0.103157
      f0      :     0.015567  f :     0.094747
      f+1     :     0.018994
      f-1     :     0.011877
      f+2     :     0.015891
      f-2     :     0.013982
      f+3     :     0.010986
      f-3     :     0.007449
  3 O s       :     3.352188  s :     3.352188
      pz      :     1.235479  p :     4.355733
      px      :     1.456753
      py      :     1.663501
      dz2     :     0.024370  d :     0.116772
      dxz     :     0.032223
      dyz     :     0.020135
      dx2y2   :     0.022735
      dxy     :     0.017308
      f0      :     0.001383  f :     0.009254
      f+1     :     0.001958
      f-1     :     0.000930
      f+2     :     0.001498
      f-2     :     0.001392
      f+3     :     0.001133
      f-3     :     0.000961
  4 C s       :     2.712406  s :     2.712406
      pz      :     0.960587  p :     2.694207
      px      :     0.800582
      py      :     0.933038
      dz2     :     0.200899  d :     0.746907
      dxz     :     0.154842
      dyz     :     0.132118
      dx2y2   :     0.147015
      dxy     :     0.112034
      f0      :     0.016651  f :     0.106578
      f+1     :     0.018267
      f-1     :     0.012013
      f+2     :     0.017361
      f-2     :     0.014526
      f+3     :     0.015207
      f-3     :     0.012555
  5 C s       :     2.820255  s :     2.820255
      pz      :     1.024287  p :     3.137623
      px      :     1.057079
      py      :     1.056257
      dz2     :     0.069603  d :     0.277877
      dxz     :     0.073459
      dyz     :     0.056153
      dx2y2   :     0.056828
      dxy     :     0.021834
      f0      :     0.006922  f :     0.029839
      f+1     :     0.004305
      f-1     :     0.006704
      f+2     :     0.002815
      f-2     :     0.004331
      f+3     :     0.001099
      f-3     :     0.003664
  6 C s       :     2.724851  s :     2.724851
      pz      :     1.032578  p :     2.816114
      px      :     0.849414
      py      :     0.934122
      dz2     :     0.132185  d :     0.533480
      dxz     :     0.083103
      dyz     :     0.165814
      dx2y2   :     0.082011
      dxy     :     0.070368
      f0      :     0.010560  f :     0.064347
      f+1     :     0.008249
      f-1     :     0.018843
      f+2     :     0.006634
      f-2     :     0.006837
      f+3     :     0.006477
      f-3     :     0.006747
  7 C s       :     2.815482  s :     2.815482
      pz      :     1.046500  p :     3.138030
      px      :     1.055130
      py      :     1.036401
      dz2     :     0.054546  d :     0.292158
      dxz     :     0.065850
      dyz     :     0.061619
      dx2y2   :     0.080107
      dxy     :     0.030035
      f0      :     0.004351  f :     0.030514
      f+1     :     0.003989
      f-1     :     0.004791
      f+2     :     0.005439
      f-2     :     0.003914
      f+3     :     0.004285
      f-3     :     0.003745
  8 C s       :     2.776130  s :     2.776130
      pz      :     1.029965  p :     2.905630
      px      :     0.921952
      py      :     0.953713
      dz2     :     0.084167  d :     0.382567
      dxz     :     0.045303
      dyz     :     0.142183
      dx2y2   :     0.053471
      dxy     :     0.057442
      f0      :     0.010356  f :     0.051508
      f+1     :     0.007833
      f-1     :     0.013334
      f+2     :     0.004904
      f-2     :     0.003613
      f+3     :     0.005769
      f-3     :     0.005699
  9 H s       :     0.800656  s :     0.800656
      pz      :     0.015800  p :     0.067632
      px      :     0.034059
      py      :     0.017773
 10 H s       :     0.808241  s :     0.808241
      pz      :     0.033845  p :     0.065924
      px      :     0.015892
      py      :     0.016187
 11 H s       :     0.809264  s :     0.809264
      pz      :     0.023761  p :     0.065896
      px      :     0.026439
      py      :     0.015696
 12 H s       :     0.792190  s :     0.792190
      pz      :     0.015706  p :     0.064552
      px      :     0.030663
      py      :     0.018182
 13 H s       :     0.805163  s :     0.805163
      pz      :     0.031201  p :     0.064172
      px      :     0.017001
      py      :     0.015969
 14 H s       :     0.800613  s :     0.800613
      pz      :     0.013556  p :     0.066307
      px      :     0.014065
      py      :     0.038685
 15 H s       :     0.800745  s :     0.800745
      pz      :     0.016424  p :     0.065756
      px      :     0.032519
      py      :     0.016814
 16 H s       :     0.797872  s :     0.797872
      pz      :     0.021484  p :     0.066177
      px      :     0.027143
      py      :     0.017550
 17 H s       :     0.802398  s :     0.802398
      pz      :     0.016336  p :     0.065164
      px      :     0.035037
      py      :     0.013792
 18 H s       :     0.801161  s :     0.801161
      pz      :     0.019568  p :     0.065453
      px      :     0.014023
      py      :     0.031862
 19 H s       :     0.800320  s :     0.800320
      pz      :     0.029260  p :     0.065312
      px      :     0.022656
      py      :     0.013396
 20 H s       :     0.798096  s :     0.798096
      pz      :     0.023992  p :     0.068126
      px      :     0.015937
      py      :     0.028197


                      *****************************
                      * MAYER POPULATION ANALYSIS *
                      *****************************

  NA   - Mulliken gross atomic population
  ZA   - Total nuclear charge
  QA   - Mulliken gross atomic charge
  VA   - Mayer's total valence
  BVA  - Mayer's bonded valence
  FA   - Mayer's free valence

  ATOM       NA         ZA         QA         VA         BVA        FA
  0 C      6.4706     6.0000    -0.4706     4.0108     3.7072     0.3036
  1 C      5.9707     6.0000     0.0293     3.8368     3.4966     0.3402
  2 C      5.9478     6.0000     0.0522     4.0547     3.7166     0.3381
  3 O      8.3058     8.0000    -0.3058     2.3050     1.8548     0.4502
  4 C      5.8610     6.0000     0.1390     3.9531     3.5968     0.3562
  5 C      6.4393     6.0000    -0.4393     3.9643     3.6634     0.3009
  6 C      5.9685     6.0000     0.0315     3.8187     3.4335     0.3853
  7 C      6.4514     6.0000    -0.4514     3.9924     3.6915     0.3009
  8 C      6.2440     6.0000    -0.2440     4.0963     3.7103     0.3860
  9 H      0.8420     1.0000     0.1580     0.9879     0.9403     0.0476
 10 H      0.8649     1.0000     0.1351     0.9727     0.9236     0.0491
 11 H      0.8677     1.0000     0.1323     0.9719     0.9225     0.0494
 12 H      0.8961     1.0000     0.1039     0.9737     0.9218     0.0519
 13 H      0.8670     1.0000     0.1330     0.9680     0.9198     0.0481
 14 H      0.8482     1.0000     0.1518     0.9725     0.9245     0.0481
 15 H      0.8652     1.0000     0.1348     0.9729     0.9233     0.0496
 16 H      0.8531     1.0000     0.1469     0.9778     0.9293     0.0485
 17 H      0.8586     1.0000     0.1414     0.9641     0.9143     0.0498
 18 H      0.8542     1.0000     0.1458     0.9706     0.9220     0.0486
 19 H      0.8522     1.0000     0.1478     0.9611     0.9117     0.0494
 20 H      0.8717     1.0000     0.1283     0.9839     0.9360     0.0479

  Mayer bond orders larger than 0.1
B(  0-C ,  1-C ) :   0.8835 B(  0-C ,  9-H ) :   0.9399 B(  0-C , 10-H ) :   0.9349 
B(  0-C , 11-H ) :   0.9349 B(  1-C ,  2-C ) :   0.9239 B(  1-C ,  4-C ) :   0.8941 
B(  1-C , 12-H ) :   0.9073 B(  2-C ,  3-O ) :   0.8802 B(  2-C ,  8-C ) :   0.9442 
B(  2-C , 13-H ) :   0.9045 B(  3-O ,  4-C ) :   0.9344 B(  4-C ,  5-C ) :   0.8209 
B(  4-C ,  6-C ) :   0.9475 B(  5-C , 14-H ) :   0.9462 B(  5-C , 15-H ) :   0.9383 
B(  5-C , 16-H ) :   0.9460 B(  6-C ,  7-C ) :   0.8520 B(  6-C ,  8-C ) :   1.7528 
B(  7-C , 17-H ) :   0.9375 B(  7-C , 18-H ) :   0.9471 B(  7-C , 19-H ) :   0.9421 
B(  8-C , 20-H ) :   0.9355 


-------
TIMINGS
-------

Total time                : 1125.956 sec
Integral trafo            :    8.340 sec (  0.7%)
FC preparation            :    8.522 sec (  0.8%)
I/O of integrals          :    0.067 sec (  0.0%)
K(i,j) Operators          :   11.669 sec (  1.0%)
T(i,j) pair energies      :    0.952 sec (  0.1%)
V-calculation             :    0.019 sec (  0.0%)
V**(-1/2)                 :    0.124 sec (  0.0%)
Gamma(ia|P)               :   11.462 sec (  1.0%)
Gamma-Trafo               :    1.649 sec (  0.1%)
D(virtual)                :    4.048 sec (  0.4%)
D(internal)               :    3.694 sec (  0.3%)
W(virtual)                :    0.000 sec (  0.0%)
W(internal)               :    0.000 sec (  0.0%)
L(virtual)                :   13.242 sec (  1.2%)
L(internal)               :    0.197 sec (  0.0%)
G(D)                      :  128.541 sec ( 11.4%)
G(Z)                      :    0.000 sec (  0.0%)
Z-Vector Solution         :  932.634 sec ( 82.8%)
3-Index Derivative        :    0.000 sec (  0.0%)
2-Index Derivative        :    0.000 sec (  0.0%)
Separable Gradient (RIJ)  :    0.000 sec (  0.0%)
Separable Gradient (X)    :    0.000 sec (  0.0%)


---------------------------------------
MP2 TOTAL ENERGY:     -386.383593314 Eh
---------------------------------------

-------------------------   --------------------
FINAL SINGLE POINT ENERGY      -386.383593314474
-------------------------   --------------------


                            ***************************************
                            *     ORCA property calculations      *
                            ***************************************

                                    ---------------------
                                    Active property flags
                                    ---------------------
   (+) Dipole Moment


------------------------------------------------------------------------------
                       ORCA ELECTRIC PROPERTIES CALCULATION
------------------------------------------------------------------------------

Dipole Moment Calculation                       ... on
Quadrupole Moment Calculation                   ... off
Polarizability Calculation                      ... off
GBWName                                         ... dsgdb9nsd_080852.gbw
Electron density file                           ... dsgdb9nsd_080852.scfp.tmp

-------------
DIPOLE MOMENT
-------------
                                X             Y             Z
Electronic contribution:      3.98291      -1.18109      -3.37639
Nuclear contribution   :     -4.78823       0.88312       3.35324
                        -----------------------------------------
Total Dipole Moment    :     -0.80531      -0.29796      -0.02315
                        -----------------------------------------
Magnitude (a.u.)       :      0.85898
Magnitude (Debye)      :      2.18335


                         *** MP2 UNRELAXED DENSITY ***

------------------------------------------------------------------------------
                       ORCA ELECTRIC PROPERTIES CALCULATION
------------------------------------------------------------------------------

Dipole Moment Calculation                       ... on
Quadrupole Moment Calculation                   ... off
Polarizability Calculation                      ... off
GBWName                                         ... dsgdb9nsd_080852.gbw
Electron density file                           ... dsgdb9nsd_080852.pmp2ur

-------------
DIPOLE MOMENT
-------------
                                X             Y             Z
Electronic contribution:      4.01445      -1.16606      -3.36850
Nuclear contribution   :     -4.78823       0.88312       3.35324
                        -----------------------------------------
Total Dipole Moment    :     -0.77378      -0.28293      -0.01526
                        -----------------------------------------
Magnitude (a.u.)       :      0.82402
Magnitude (Debye)      :      2.09450


                           *** MP2 RELAXED DENSITY ***

------------------------------------------------------------------------------
                       ORCA ELECTRIC PROPERTIES CALCULATION
------------------------------------------------------------------------------

Dipole Moment Calculation                       ... on
Quadrupole Moment Calculation                   ... off
Polarizability Calculation                      ... off
GBWName                                         ... dsgdb9nsd_080852.gbw
Electron density file                           ... dsgdb9nsd_080852.pmp2re

-------------
DIPOLE MOMENT
-------------
                                X             Y             Z
Electronic contribution:      4.05575      -1.13748      -3.35656
Nuclear contribution   :     -4.78823       0.88312       3.35324
                        -----------------------------------------
Total Dipole Moment    :     -0.73248      -0.25436      -0.00332
                        -----------------------------------------
Magnitude (a.u.)       :      0.77539
Magnitude (Debye)      :      1.97089


Timings for individual modules:

Sum of individual times         ...     1315.424 sec (=  21.924 min)
GTO integral calculation        ...        0.589 sec (=   0.010 min)   0.0 %
SCF iterations                  ...      188.741 sec (=   3.146 min)  14.3 %
MP2 module                      ...     1126.094 sec (=  18.768 min)  85.6 %
                             ****ORCA TERMINATED NORMALLY****
TOTAL RUN TIME: 0 days 0 hours 21 minutes 55 seconds 918 msec
