
                                 *****************
                                 * O   R   C   A *
                                 *****************

           --- An Ab Initio, DFT and Semiempirical electronic structure package ---

                  #######################################################
                  #                        -***-                        #
                  #  Department of molecular theory and spectroscopy    #
                  #              Directorship: Frank Neese              #
                  # Max Planck Institute for Chemical Energy Conversion #
                  #                  D-45470 Muelheim/Ruhr              #
                  #                       Germany                       #
                  #                                                     #
                  #                  All rights reserved                #
                  #                        -***-                        #
                  #######################################################


                         Program Version 3.0.3 - RELEASE   -


 With contributions from (in alphabetic order):
   Ute Becker             : Parallelization
   Dmytro Bykov           : SCF Hessian
   Dmitry Ganyushin       : Spin-Orbit,Spin-Spin,Magnetic field MRCI
   Andreas Hansen         : Spin unrestricted coupled pair/coupled cluster methods
   Dimitrios Liakos       : Extrapolation schemes; parallel MDCI
   Robert Izsak           : Overlap fitted RIJCOSX, COSX-SCS-MP3
   Christian Kollmar      : KDIIS, OOCD, Brueckner-CCSD(T), CCSD density
   Simone Kossmann        : Meta GGA functionals, TD-DFT gradient, OOMP2, MP2 Hessian
   Taras Petrenko         : DFT Hessian,TD-DFT gradient, ASA and ECA modules, normal mode analysis, Resonance Raman, ABS, FL, XAS/XES, NRVS
   Christoph Reimann      : Effective Core Potentials
   Michael Roemelt        : Restricted open shell CIS
   Christoph Riplinger    : Improved optimizer, TS searches, QM/MM, DLPNO-CCSD
   Barbara Sandhoefer     : DKH picture change effects
   Igor Schapiro          : Molecular dynamics
   Kantharuban Sivalingam : CASSCF convergence, NEVPT2
   Boris Wezisla          : Elementary symmetry handling
   Frank Wennmohs         : Technical directorship


 We gratefully acknowledge several colleagues who have allowed us to
 interface, adapt or use parts of their codes:
   Stefan Grimme, W. Hujo, H. Kruse, T. Risthaus : VdW corrections, initial TS optimization,
                                                   DFT functionals, gCP
   Ed Valeev                                     : LibInt (2-el integral package), F12 methods
   Garnet Chan, S. Sharma, R. Olivares           : DMRG
   Ulf Ekstrom                                   : XCFun DFT Library
   Mihaly Kallay                                 : mrcc  (arbitrary order and MRCC methods)
   Andreas Klamt, Michael Diedenhofen            : otool_cosmo (COSMO solvation model)
   Frank Weinhold                                : gennbo (NPA and NBO analysis)
   Christopher J. Cramer and Donald G. Truhlar   : smd solvation model


 Your calculation uses the libint2 library for the computation of 2-el integrals
 For citations please refer to: http://libint.valeyev.net

 This ORCA versions uses:
   CBLAS   interface :  Fast vector & matrix operations
   LAPACKE interface :  Fast linear algebra routines
   SCALAPACK package :  Parallel linear algebra routines


Your calculation utilizes the basis: Ahlrichs-TZV
Cite in your paper:
H - Kr: A. Schaefer, H. Horn and R. Ahlrichs, J. Chem. Phys. 97, 2571 (1992).

The def2-TZV basis will be loaded
Cite in your paper:
 	F. Weigend, R. Ahlrichs, Phys. Chem. Chem. Phys. 2005, 7, 3297.

================================================================================
                                        WARNINGS
                       Please study these warnings very carefully!
================================================================================
Now building the actual basis set


INFO   : the flag for use of LIBINT has been found!

================================================================================
                                       INPUT FILE
================================================================================
NAME = dsgdb9nsd_006812.inp
|  1> ! RI-MP2 RIJK def2-TZVP def2-TZVP/C def2-TZVP/JK TIGHTSCF
|  2> % maxcore 2000
|  3> % mp2 density relaxed end
|  4> *xyz 0 1
|  5>  C       -0.1956827787     1.5478522335    -0.0232342220 
|  6>  C       -0.0458489464     0.0293486180    -0.0269366380 
|  7>  C       -1.3546706876    -0.6701928731    -0.3745544478 
|  8>  C        1.2158211818    -0.4587206908    -0.7823559981 
|  9>  O        1.8974883874    -0.7821361280     0.4470824829 
| 10>  C        0.6999847595    -0.5539072210     1.2274870858 
| 11>  C        0.9091148159     0.2860603358     2.3926811611 
| 12>  C        1.0647678060     0.9764839843     3.3647131020 
| 13>  H        0.7460391470     2.0407563937     0.2330158150 
| 14>  H       -0.5085575594     1.8986107470    -1.0130496372 
| 15>  H       -0.9483495234     1.8689376202     0.7037957817 
| 16>  H       -1.7095486061    -0.3626246225    -1.3645275558 
| 17>  H       -1.2388470575    -1.7588453380    -0.3829543942 
| 18>  H       -2.1377142140    -0.4190581334     0.3496062382 
| 19>  H        1.0607993569    -1.3478323257    -1.4084315481 
| 20>  H        1.7579958948     0.2978998129    -1.3612998751 
| 21>  H        0.2643780883    -1.5118616292     1.5483163991 
| 22>  H        1.2103564754     1.5840350863     4.2236973606 
| 23> *
| 24> 
| 25>                          ****END OF INPUT****
================================================================================

                       ****************************
                       * Single Point Calculation *
                       ****************************

---------------------------------
CARTESIAN COORDINATES (ANGSTROEM)
---------------------------------
  C     -0.195683    1.547852   -0.023234
  C     -0.045849    0.029349   -0.026937
  C     -1.354671   -0.670193   -0.374554
  C      1.215821   -0.458721   -0.782356
  O      1.897488   -0.782136    0.447082
  C      0.699985   -0.553907    1.227487
  C      0.909115    0.286060    2.392681
  C      1.064768    0.976484    3.364713
  H      0.746039    2.040756    0.233016
  H     -0.508558    1.898611   -1.013050
  H     -0.948350    1.868938    0.703796
  H     -1.709549   -0.362625   -1.364528
  H     -1.238847   -1.758845   -0.382954
  H     -2.137714   -0.419058    0.349606
  H      1.060799   -1.347832   -1.408432
  H      1.757996    0.297900   -1.361300
  H      0.264378   -1.511862    1.548316
  H      1.210356    1.584035    4.223697

----------------------------
CARTESIAN COORDINATES (A.U.)
----------------------------
  NO LB      ZA    FRAG    MASS        X           Y           Z
   0 C     6.0000    0    12.011         -0.369786860867719          2.925016817093330         -0.043906316514728
   1 C     6.0000    0    12.011         -0.086641952224835          0.055460850429072         -0.050902868788576
   2 C     6.0000    0    12.011         -2.559956601214792         -1.266480987064839         -0.707805328584103
   3 C     6.0000    0    12.011          2.297569061422481         -0.866856477575170         -1.478438575639615
   4 O     8.0000    0    15.999          3.585733394481872         -1.478023081365577          0.844863451954531
   5 C     6.0000    0    12.011          1.322779493373732         -1.046732951291394          2.319614425087098
   6 C     6.0000    0    12.011          1.717978026341237          0.540575692439549          4.521512120271715
   7 C     6.0000    0    12.011          2.012119549556194          1.845287304487259          6.358386281996642
   8 H     1.0000    0     1.008          1.409809673014218          3.856470690141777          0.440336075222460
   9 H     1.0000    0     1.008         -0.961034510601389          3.587854346749650         -1.914386374376283
  10 H     1.0000    0     1.008         -1.792120878460744          3.531780263560531          1.329981281622026
  11 H     1.0000    0     1.008         -3.230578678155818         -0.685261225941578         -2.578583382650949
  12 H     1.0000    0     1.008         -2.341081660489194         -3.323736000744157         -0.723678926819721
  13 H     1.0000    0     1.008         -4.039694417050727         -0.791905106318238          0.660660044908438
  14 H     1.0000    0     1.008          2.004620267580787         -2.547033970019150         -2.661549904283736
  15 H     1.0000    0     1.008          3.322130785729835          0.562949061727381         -2.572483950080206
  16 H     1.0000    0     1.008          0.499602182696650         -2.857004431572001          2.925893962958117
  17 H     1.0000    0     1.008          2.287242262924194          2.993392499629315          7.981631284100033

--------------------------------
INTERNAL COORDINATES (ANGSTROEM)
--------------------------------
 C      0   0   0   0.000000     0.000     0.000
 C      1   0   0   1.525882     0.000     0.000
 C      2   1   0   1.524208   111.899     0.000
 C      2   1   3   1.549413   113.242   133.852
 O      4   2   1   1.442493    92.286   105.912
 C      5   4   2   1.447458    91.903     8.558
 C      6   5   4   1.451536   113.881   228.206
 C      7   6   5   1.202397   179.065   193.382
 H      1   2   3   1.093370   111.385   179.650
 H      1   2   3   1.095745   110.146   299.788
 H      1   2   3   1.094612   111.164    59.512
 H      3   2   1   1.095711   110.814    59.400
 H      3   2   1   1.094829   111.548   179.571
 H      3   2   1   1.095735   110.961   300.005
 H      4   2   1   1.098418   114.705   221.194
 H      4   2   1   1.096177   116.284   350.190
 H      6   5   4   1.100164   110.335   105.162
 H      8   7   6   1.062153   179.545   140.421

---------------------------
INTERNAL COORDINATES (A.U.)
---------------------------
 C      0   0   0   0.000000     0.000     0.000
 C      1   0   0   2.883500     0.000     0.000
 C      2   1   0   2.880336   111.899     0.000
 C      2   1   3   2.927967   113.242   133.852
 O      4   2   1   2.725917    92.286   105.912
 C      5   4   2   2.735299    91.903     8.558
 C      6   5   4   2.743006   113.881   228.206
 C      7   6   5   2.272201   179.065   193.382
 H      1   2   3   2.066171   111.385   179.650
 H      1   2   3   2.070658   110.146   299.788
 H      1   2   3   2.068517   111.164    59.512
 H      3   2   1   2.070594   110.814    59.400
 H      3   2   1   2.068926   111.548   179.571
 H      3   2   1   2.070638   110.961   300.005
 H      4   2   1   2.075709   114.705   221.194
 H      4   2   1   2.071474   116.284   350.190
 H      6   5   4   2.079009   110.335   105.162
 H      8   7   6   2.007178   179.545   140.421

---------------------
BASIS SET INFORMATION
---------------------
There are 3 groups of distinct atoms

 Group   1 Type C   : 11s6p2d1f contracted to 5s3p2d1f pattern {62111/411/11/1}
 Group   2 Type O   : 11s6p2d1f contracted to 5s3p2d1f pattern {62111/411/11/1}
 Group   3 Type H   : 5s1p contracted to 3s1p pattern {311/1}

Atom   0C    basis set group =>   1
Atom   1C    basis set group =>   1
Atom   2C    basis set group =>   1
Atom   3C    basis set group =>   1
Atom   4O    basis set group =>   2
Atom   5C    basis set group =>   1
Atom   6C    basis set group =>   1
Atom   7C    basis set group =>   1
Atom   8H    basis set group =>   3
Atom   9H    basis set group =>   3
Atom  10H    basis set group =>   3
Atom  11H    basis set group =>   3
Atom  12H    basis set group =>   3
Atom  13H    basis set group =>   3
Atom  14H    basis set group =>   3
Atom  15H    basis set group =>   3
Atom  16H    basis set group =>   3
Atom  17H    basis set group =>   3
-------------------------------
AUXILIARY BASIS SET INFORMATION
-------------------------------
There are 3 groups of distinct atoms

 Group   1 Type C   : 14s10p6d2f1g contracted to 10s8p5d1f1g pattern {5111111111/31111111/21111/2/1}
 Group   2 Type O   : 14s10p6d2f1g contracted to 10s8p4d2f1g pattern {5111111111/31111111/3111/11/1}
 Group   3 Type H   : 4s2p2d contracted to 2s2p2d pattern {31/11/11}

Atom   0C    basis set group =>   1
Atom   1C    basis set group =>   1
Atom   2C    basis set group =>   1
Atom   3C    basis set group =>   1
Atom   4O    basis set group =>   2
Atom   5C    basis set group =>   1
Atom   6C    basis set group =>   1
Atom   7C    basis set group =>   1
Atom   8H    basis set group =>   3
Atom   9H    basis set group =>   3
Atom  10H    basis set group =>   3
Atom  11H    basis set group =>   3
Atom  12H    basis set group =>   3
Atom  13H    basis set group =>   3
Atom  14H    basis set group =>   3
Atom  15H    basis set group =>   3
Atom  16H    basis set group =>   3
Atom  17H    basis set group =>   3
------------------------------------------------------------------------------
                           ORCA GTO INTEGRAL CALCULATION
                           -- RI-GTO INTEGRALS CHOSEN --
------------------------------------------------------------------------------

                         BASIS SET STATISTICS AND STARTUP INFO

Gaussian basis set:
 # of primitive gaussian shells          ...  220
 # of primitive gaussian functions       ...  448
 # of contracted shells                  ...  128
 # of contracted basis functions         ...  308
 Highest angular momentum                ...    3
 Maximum contraction depth               ...    6
Auxiliary gaussian basis set:
 # of primitive gaussian shells          ...  344
 # of primitive gaussian functions       ...  976
 # of contracted shells                  ...  260
 # of contracted aux-basis functions     ...  782
 Highest angular momentum                ...    4
 Maximum contraction depth               ...    5
Ratio of auxiliary to basis functions    ...  2.54
Integral package used                  ... LIBINT
 One Electron integrals                  ... done
 Ordering auxiliary basis shells         ... done
 Integral threshhold             Thresh  ...  2.500e-11
 Primitive cut-off               TCut    ...  2.500e-12
 Pre-screening matrix                    ... done
 Shell pair data                         ... 
 Ordering of the shell pairs             ... done (   0.001 sec) 7711 of 8256 pairs
 Determination of significant pairs      ... done (   0.000 sec)
 Creation of shell pair data             ... done (   0.002 sec)
 Storage of shell pair data              ... done (   0.002 sec)
 Shell pair data done in (   0.005 sec)
 Computing two index integrals           ... done
 Cholesky decomposition of the V-matrix  ... done


Timings:
 Total evaluation time                   ...   0.340 sec (  0.006 min)
 One electron matrix time                ...   0.072 sec (  0.001 min) = 21.2%
 Schwartz matrix evaluation time         ...   0.189 sec (  0.003 min) = 55.5%
 Two index repulsion integral time       ...   0.020 sec (  0.000 min) =  5.8%
 Cholesky decomposition of V             ...   0.027 sec (  0.000 min) =  7.9%
 Three index repulsion integral time     ...   0.000 sec (  0.000 min) =  0.0%

-------------------------------------------------------------------------------
                                 ORCA SCF
-------------------------------------------------------------------------------

------------
SCF SETTINGS
------------
Hamiltonian:
 Ab initio Hamiltonian  Method          .... Hartree-Fock(GTOs)
 RI-approximation to the Coulomb term is turned on
   Number of auxiliary basis functions  .... 782
   RI-JK (J+K treated both via RI)      .... on


General Settings:
 Integral files         IntName         .... dsgdb9nsd_006812
 Hartree-Fock type      HFTyp           .... RHF
 Total Charge           Charge          ....    0
 Multiplicity           Mult            ....    1
 Number of Electrons    NEL             ....   60
 Basis Dimension        Dim             ....  308
 Nuclear Repulsion      ENuc            ....    367.1734528735 Eh

Convergence Acceleration:
 DIIS                   CNVDIIS         .... on
   Start iteration      DIISMaxIt       ....    12
   Startup error        DIISStart       ....  0.200000
   # of expansion vecs  DIISMaxEq       ....     5
   Bias factor          DIISBfac        ....   1.050
   Max. coefficient     DIISMaxC        ....  10.000
 Newton-Raphson         CNVNR           .... off
 SOSCF                  CNVSOSCF        .... on
   Start iteration      SOSCFMaxIt      ....   150
   Startup grad/error   SOSCFStart      ....  0.003300
 Level Shifting         CNVShift        .... on
   Level shift para.    LevelShift      ....    0.2500
   Turn off err/grad.   ShiftErr        ....    0.0010
 Zerner damping         CNVZerner       .... off
 Static damping         CNVDamp         .... on
   Fraction old density DampFac         ....    0.7000
   Max. Damping (<1)    DampMax         ....    0.9800
   Min. Damping (>=0)   DampMin         ....    0.0000
   Turn off err/grad.   DampErr         ....    0.1000
 Fernandez-Rico         CNVRico         .... off

SCF Procedure:
 Maximum # iterations   MaxIter         ....   125
 SCF integral mode      SCFMode         .... Direct
   Integral package                     .... LIBINT
 Reset frequeny         DirectResetFreq ....    20
 Integral Threshold     Thresh          ....  2.500e-11 Eh
 Primitive CutOff       TCut            ....  2.500e-12 Eh

Convergence Tolerance:
 Convergence Check Mode ConvCheckMode   .... Total+1el-Energy
 Energy Change          TolE            ....  1.000e-08 Eh
 1-El. energy change                    ....  1.000e-05 Eh
 Orbital Gradient       TolG            ....  1.000e-05
 Orbital Rotation angle TolX            ....  1.000e-05
 DIIS Error             TolErr          ....  5.000e-07


Diagonalization of the overlap matrix:
Smallest eigenvalue                        ... 1.746e-05
Time for diagonalization                   ...    0.026 sec
Threshold for overlap eigenvalues          ... 1.000e-08
Number of eigenvalues below threshold      ... 0
Time for construction of square roots      ...    0.013 sec
Total time needed                          ...    0.039 sec

-------------------
DFT GRID GENERATION
-------------------

General Integration Accuracy     IntAcc      ...  4.340
Radial Grid Type                 RadialGrid  ... Gauss-Chebyshev
Angular Grid (max. acc.)         AngularGrid ... Lebedev-110
Angular grid pruning method      GridPruning ... 3 (G Style)
Weight generation scheme         WeightScheme... Becke
Basis function cutoff            BFCut       ...    1.0000e-11
Integration weight cutoff        WCut        ...    1.0000e-14
Grids for H and He will be reduced by one unit

# of grid points (after initial pruning)     ...  21248 (   0.0 sec)
# of grid points (after weights+screening)   ...  19502 (   0.1 sec)
nearest neighbour list constructed           ...    0.0 sec
Grid point re-assignment to atoms done       ...    0.0 sec
Grid point division into batches done        ...    0.0 sec
Reduced shell lists constructed in    1.2 sec

Total number of grid points                  ...    19502
Total number of batches                      ...      314
Average number of points per batch           ...       62
Average number of grid points per atom       ...     1083
Average number of shells per batch           ...    89.91 (70.24%)
Average number of basis functions per batch  ...   223.55 (72.58%)
Average number of large shells per batch     ...    70.36 (78.25%)
Average number of large basis fcns per batch ...   171.73 (76.82%)
Average number of aux-shells per batch       ...    89.91 (34.58%)
Average number of aux functions per batch    ...   223.55 (  inf%)
Maximum spatial batch extension              ...  20.17, 19.96, 22.37 au
Average spatial batch extension              ...   3.99,  3.74,  3.78 au

Time for grid setup =    1.259 sec

------------------------------
INITIAL GUESS: MODEL POTENTIAL
------------------------------
Loading Hartree-Fock densities                     ... done
Calculating cut-offs                               ... done
Setting up the integral package                    ... done
Initializing the effective Hamiltonian             ... done
Starting the Coulomb interaction                   ... done (   0.6 sec)
Reading the grid                                   ... done
Mapping shells                                     ... done
Starting the XC term evaluation                    ... done (   0.6 sec)
Transforming the Hamiltonian                       ... done (   0.0 sec)
Diagonalizing the Hamiltonian                      ... done (   0.0 sec)
Back transforming the eigenvectors                 ... done (   0.0 sec)
Now organizing SCF variables                       ... done
                      ------------------
                      INITIAL GUESS DONE (   2.6 sec)
                      ------------------
--------------
SCF ITERATIONS
--------------
ITER       Energy         Delta-E        Max-DP      RMS-DP      [F,P]     Damp
  0   -345.4119299165   0.000000000000 0.09672175  0.00134255  0.2960283 0.7000
  1   -345.3014855071   0.110444409429 0.08561468  0.00132974  0.2481121 0.7000
                               ***Turning on DIIS***
  2   -345.3438256458  -0.042340138716 0.05892778  0.00094321  0.1812098 0.7000
  3   -346.4932978962  -1.149472250411 0.02502821  0.00052084  0.1270440 0.7000
  4   -345.8066209633   0.686676932864 0.07763217  0.00127097  0.0840892 0.0000
  5   -345.7169612698   0.089659693513 0.01170847  0.00026848  0.0173290 0.0000
  6   -345.6686240088   0.048337260964 0.00840438  0.00014409  0.0128438 0.0000
  7   -345.7025480238  -0.033924014916 0.00236829  0.00006584  0.0072599 0.0000
  8   -345.7062112150  -0.003663191191 0.00217972  0.00004931  0.0037329 0.0000
                      *** Initiating the SOSCF procedure ***
                           *** Shutting down DIIS ***
                      *** Re-Reading the Fockian *** 
                      *** Removing any level shift *** 
ITER      Energy       Delta-E        Grad      Rot      Max-DP    RMS-DP
  9   -345.77633702  -0.0701258047  0.000148  0.000148  0.001290  0.000017
 10   -345.78133187  -0.0049948520  0.000039  0.000070  0.000277  0.000004
 11   -345.78133197  -0.0000000958  0.000042  0.000045  0.000079  0.000002
 12   -345.78133203  -0.0000000628  0.000007  0.000015  0.000033  0.000001
 13   -345.78133203  -0.0000000040  0.000005  0.000015  0.000020  0.000000
                  ***Gradient check signals convergence***
              ***Rediagonalizing the Fockian in SOSCF/NRSCF***

               *****************************************************
               *                     SUCCESS                       *
               *           SCF CONVERGED AFTER  14 CYCLES          *
               *****************************************************


----------------
TOTAL SCF ENERGY
----------------

Total Energy       :         -345.78133204 Eh           -9409.18840 eV

Components:
Nuclear Repulsion  :          367.17345287 Eh            9991.29760 eV
Electronic Energy  :         -712.95478491 Eh          -19400.48600 eV

One Electron Energy:        -1196.79916445 Eh          -32566.56092 eV
Two Electron Energy:          483.84437955 Eh           13166.07492 eV

Virial components:
Potential Energy   :         -691.08088186 Eh          -18805.26684 eV
Kinetic Energy     :          345.29954982 Eh            9396.07844 eV
Virial Ratio       :            2.00139526


---------------
SCF CONVERGENCE
---------------

  Last Energy change         ...   -1.4662e-09  Tolerance :   1.0000e-08
  Last MAX-Density change    ...    1.5562e-05  Tolerance :   1.0000e-07
  Last RMS-Density change    ...    2.0479e-07  Tolerance :   5.0000e-09
  Last Orbital Gradient      ...    1.7446e-06  Tolerance :   1.0000e-05
  Last Orbital Rotation      ...    5.8978e-06  Tolerance :   1.0000e-05

             **** THE GBW FILE WAS UPDATED (dsgdb9nsd_006812.gbw) ****
             **** DENSITY FILE WAS UPDATED (dsgdb9nsd_006812.scfp.tmp) ****
             **** ENERGY FILE WAS UPDATED (dsgdb9nsd_006812.en.tmp) ****
----------------
ORBITAL ENERGIES
----------------

  NO   OCC          E(Eh)            E(eV) 
   0   2.0000     -20.555311      -559.3385 
   1   2.0000     -11.307207      -307.6847 
   2   2.0000     -11.278883      -306.9140 
   3   2.0000     -11.252800      -306.2043 
   4   2.0000     -11.234891      -305.7169 
   5   2.0000     -11.229256      -305.5636 
   6   2.0000     -11.226929      -305.5003 
   7   2.0000     -11.220494      -305.3252 
   8   2.0000      -1.385124       -37.6911 
   9   2.0000      -1.091367       -29.6976 
  10   2.0000      -1.045370       -28.4460 
  11   2.0000      -0.947811       -25.7913 
  12   2.0000      -0.942937       -25.6586 
  13   2.0000      -0.906579       -24.6693 
  14   2.0000      -0.771815       -21.0021 
  15   2.0000      -0.717748       -19.5309 
  16   2.0000      -0.685257       -18.6468 
  17   2.0000      -0.653655       -17.7869 
  18   2.0000      -0.639791       -17.4096 
  19   2.0000      -0.596878       -16.2419 
  20   2.0000      -0.578847       -15.7512 
  21   2.0000      -0.573500       -15.6057 
  22   2.0000      -0.551105       -14.9963 
  23   2.0000      -0.538137       -14.6435 
  24   2.0000      -0.493513       -13.4292 
  25   2.0000      -0.468745       -12.7552 
  26   2.0000      -0.450655       -12.2629 
  27   2.0000      -0.431235       -11.7345 
  28   2.0000      -0.396586       -10.7917 
  29   2.0000      -0.382731       -10.4146 
  30   0.0000       0.127766         3.4767 
  31   0.0000       0.149460         4.0670 
  32   0.0000       0.162174         4.4130 
  33   0.0000       0.168624         4.5885 
  34   0.0000       0.182332         4.9615 
  35   0.0000       0.186796         5.0830 
  36   0.0000       0.191756         5.2179 
  37   0.0000       0.198311         5.3963 
  38   0.0000       0.212886         5.7929 
  39   0.0000       0.216519         5.8918 
  40   0.0000       0.238626         6.4934 
  41   0.0000       0.241796         6.5796 
  42   0.0000       0.250825         6.8253 
  43   0.0000       0.265802         7.2328 
  44   0.0000       0.270424         7.3586 
  45   0.0000       0.282334         7.6827 
  46   0.0000       0.304020         8.2728 
  47   0.0000       0.319588         8.6964 
  48   0.0000       0.330704         8.9989 
  49   0.0000       0.345993         9.4149 
  50   0.0000       0.376277        10.2390 
  51   0.0000       0.378778        10.3071 
  52   0.0000       0.388876        10.5819 
  53   0.0000       0.400410        10.8957 
  54   0.0000       0.420076        11.4309 
  55   0.0000       0.432262        11.7625 
  56   0.0000       0.451673        12.2906 
  57   0.0000       0.468889        12.7591 
  58   0.0000       0.477559        12.9950 
  59   0.0000       0.488215        13.2850 
  60   0.0000       0.500002        13.6058 
  61   0.0000       0.503662        13.7054 
  62   0.0000       0.512776        13.9534 
  63   0.0000       0.529462        14.4074 
  64   0.0000       0.548334        14.9209 
  65   0.0000       0.559810        15.2332 
  66   0.0000       0.567650        15.4466 
  67   0.0000       0.580800        15.8044 
  68   0.0000       0.584073        15.8934 
  69   0.0000       0.595243        16.1974 
  70   0.0000       0.601063        16.3558 
  71   0.0000       0.607883        16.5413 
  72   0.0000       0.617426        16.8010 
  73   0.0000       0.628642        17.1062 
  74   0.0000       0.640486        17.4285 
  75   0.0000       0.650304        17.6957 
  76   0.0000       0.672623        18.3030 
  77   0.0000       0.685858        18.6632 
  78   0.0000       0.698761        19.0143 
  79   0.0000       0.728155        19.8141 
  80   0.0000       0.732653        19.9365 
  81   0.0000       0.740056        20.1380 
  82   0.0000       0.754251        20.5242 
  83   0.0000       0.769028        20.9263 
  84   0.0000       0.784750        21.3541 
  85   0.0000       0.806204        21.9379 
  86   0.0000       0.814215        22.1559 
  87   0.0000       0.830149        22.5895 
  88   0.0000       0.844782        22.9877 
  89   0.0000       0.889858        24.2143 
  90   0.0000       0.924035        25.1443 
  91   0.0000       0.941869        25.6296 
  92   0.0000       0.956647        26.0317 
  93   0.0000       0.974899        26.5284 
  94   0.0000       1.026511        27.9328 
  95   0.0000       1.042450        28.3665 
  96   0.0000       1.051989        28.6261 
  97   0.0000       1.064509        28.9668 
  98   0.0000       1.104538        30.0560 
  99   0.0000       1.109995        30.2045 
 100   0.0000       1.118797        30.4440 
 101   0.0000       1.155807        31.4511 
 102   0.0000       1.168659        31.8008 
 103   0.0000       1.181672        32.1549 
 104   0.0000       1.198376        32.6095 
 105   0.0000       1.220895        33.2222 
 106   0.0000       1.225308        33.3423 
 107   0.0000       1.245854        33.9014 
 108   0.0000       1.248179        33.9647 
 109   0.0000       1.278377        34.7864 
 110   0.0000       1.302141        35.4331 
 111   0.0000       1.312972        35.7278 
 112   0.0000       1.331755        36.2389 
 113   0.0000       1.347927        36.6790 
 114   0.0000       1.369758        37.2730 
 115   0.0000       1.410145        38.3720 
 116   0.0000       1.416280        38.5389 
 117   0.0000       1.464266        39.8447 
 118   0.0000       1.470090        40.0032 
 119   0.0000       1.526253        41.5315 
 120   0.0000       1.550582        42.1935 
 121   0.0000       1.553438        42.2712 
 122   0.0000       1.591034        43.2942 
 123   0.0000       1.609245        43.7898 
 124   0.0000       1.630803        44.3764 
 125   0.0000       1.701285        46.2943 
 126   0.0000       1.718388        46.7597 
 127   0.0000       1.751420        47.6586 
 128   0.0000       1.777842        48.3775 
 129   0.0000       1.783048        48.5192 
 130   0.0000       1.802628        49.0520 
 131   0.0000       1.814612        49.3781 
 132   0.0000       1.828178        49.7472 
 133   0.0000       1.831021        49.8246 
 134   0.0000       1.854849        50.4730 
 135   0.0000       1.870939        50.9108 
 136   0.0000       1.877321        51.0845 
 137   0.0000       1.889560        51.4175 
 138   0.0000       1.904211        51.8162 
 139   0.0000       1.916077        52.1391 
 140   0.0000       1.918930        52.2167 
 141   0.0000       1.926474        52.4220 
 142   0.0000       1.941174        52.8220 
 143   0.0000       1.973747        53.7084 
 144   0.0000       2.008887        54.6646 
 145   0.0000       2.024873        55.0996 
 146   0.0000       2.053428        55.8766 
 147   0.0000       2.094619        56.9975 
 148   0.0000       2.128400        57.9167 
 149   0.0000       2.152480        58.5720 
 150   0.0000       2.166562        58.9551 
 151   0.0000       2.187437        59.5232 
 152   0.0000       2.193638        59.6919 
 153   0.0000       2.220762        60.4300 
 154   0.0000       2.263464        61.5920 
 155   0.0000       2.313061        62.9416 
 156   0.0000       2.332069        63.4588 
 157   0.0000       2.337326        63.6019 
 158   0.0000       2.356028        64.1108 
 159   0.0000       2.361217        64.2520 
 160   0.0000       2.386704        64.9455 
 161   0.0000       2.432887        66.2022 
 162   0.0000       2.491199        67.7890 
 163   0.0000       2.494953        67.8911 
 164   0.0000       2.512383        68.3654 
 165   0.0000       2.533530        68.9408 
 166   0.0000       2.556677        69.5707 
 167   0.0000       2.582033        70.2607 
 168   0.0000       2.601794        70.7984 
 169   0.0000       2.622847        71.3713 
 170   0.0000       2.632659        71.6383 
 171   0.0000       2.648564        72.0711 
 172   0.0000       2.676728        72.8375 
 173   0.0000       2.687660        73.1349 
 174   0.0000       2.707692        73.6800 
 175   0.0000       2.727376        74.2157 
 176   0.0000       2.742855        74.6369 
 177   0.0000       2.761829        75.1532 
 178   0.0000       2.776787        75.5602 
 179   0.0000       2.804385        76.3112 
 180   0.0000       2.820599        76.7524 
 181   0.0000       2.823547        76.8326 
 182   0.0000       2.829726        77.0008 
 183   0.0000       2.855681        77.7070 
 184   0.0000       2.867201        78.0205 
 185   0.0000       2.881159        78.4003 
 186   0.0000       2.888231        78.5928 
 187   0.0000       2.905812        79.0712 
 188   0.0000       2.917268        79.3829 
 189   0.0000       2.936869        79.9163 
 190   0.0000       2.964503        80.6682 
 191   0.0000       2.990647        81.3796 
 192   0.0000       2.998741        81.5999 
 193   0.0000       3.017323        82.1055 
 194   0.0000       3.025355        82.3241 
 195   0.0000       3.054590        83.1196 
 196   0.0000       3.062245        83.3279 
 197   0.0000       3.098621        84.3178 
 198   0.0000       3.127370        85.1001 
 199   0.0000       3.141962        85.4971 
 200   0.0000       3.146260        85.6141 
 201   0.0000       3.173936        86.3672 
 202   0.0000       3.214473        87.4702 
 203   0.0000       3.223837        87.7251 
 204   0.0000       3.226867        87.8075 
 205   0.0000       3.250011        88.4373 
 206   0.0000       3.257666        88.6456 
 207   0.0000       3.290426        89.5370 
 208   0.0000       3.305993        89.9606 
 209   0.0000       3.324624        90.4676 
 210   0.0000       3.342328        90.9494 
 211   0.0000       3.345713        91.0415 
 212   0.0000       3.357736        91.3687 
 213   0.0000       3.395669        92.4009 
 214   0.0000       3.418381        93.0189 
 215   0.0000       3.425417        93.2103 
 216   0.0000       3.447145        93.8016 
 217   0.0000       3.451993        93.9335 
 218   0.0000       3.465870        94.3111 
 219   0.0000       3.492289        95.0300 
 220   0.0000       3.494985        95.1034 
 221   0.0000       3.516743        95.6954 
 222   0.0000       3.534704        96.1842 
 223   0.0000       3.538902        96.2984 
 224   0.0000       3.557180        96.7958 
 225   0.0000       3.563310        96.9626 
 226   0.0000       3.602129        98.0189 
 227   0.0000       3.625854        98.6645 
 228   0.0000       3.639328        99.0312 
 229   0.0000       3.653557        99.4183 
 230   0.0000       3.667958        99.8102 
 231   0.0000       3.680450       100.1501 
 232   0.0000       3.683831       100.2421 
 233   0.0000       3.707890       100.8968 
 234   0.0000       3.734081       101.6095 
 235   0.0000       3.766651       102.4958 
 236   0.0000       3.778070       102.8065 
 237   0.0000       3.790325       103.1400 
 238   0.0000       3.811374       103.7128 
 239   0.0000       3.836940       104.4084 
 240   0.0000       3.884521       105.7032 
 241   0.0000       3.892161       105.9111 
 242   0.0000       3.954042       107.5949 
 243   0.0000       3.976883       108.2165 
 244   0.0000       3.990667       108.5916 
 245   0.0000       3.996365       108.7466 
 246   0.0000       4.021128       109.4205 
 247   0.0000       4.075136       110.8901 
 248   0.0000       4.108708       111.8036 
 249   0.0000       4.126786       112.2956 
 250   0.0000       4.183724       113.8449 
 251   0.0000       4.224417       114.9522 
 252   0.0000       4.243596       115.4741 
 253   0.0000       4.267428       116.1226 
 254   0.0000       4.310133       117.2847 
 255   0.0000       4.315747       117.4375 
 256   0.0000       4.347941       118.3135 
 257   0.0000       4.369057       118.8881 
 258   0.0000       4.377594       119.1204 
 259   0.0000       4.404736       119.8589 
 260   0.0000       4.450479       121.1037 
 261   0.0000       4.485219       122.0490 
 262   0.0000       4.528021       123.2137 
 263   0.0000       4.543076       123.6234 
 264   0.0000       4.594942       125.0347 
 265   0.0000       4.632094       126.0457 
 266   0.0000       4.676596       127.2566 
 267   0.0000       4.724025       128.5472 
 268   0.0000       4.736890       128.8973 
 269   0.0000       4.748796       129.2213 
 270   0.0000       4.780884       130.0945 
 271   0.0000       4.815660       131.0408 
 272   0.0000       4.833268       131.5199 
 273   0.0000       4.904114       133.4477 
 274   0.0000       4.956359       134.8694 
 275   0.0000       5.053547       137.5140 
 276   0.0000       5.116495       139.2269 
 277   0.0000       5.139011       139.8396 
 278   0.0000       5.184989       141.0907 
 279   0.0000       5.236851       142.5019 
 280   0.0000       5.284999       143.8121 
 281   0.0000       5.321935       144.8172 
 282   0.0000       5.350457       145.5933 
 283   0.0000       5.371726       146.1721 
 284   0.0000       5.488098       149.3387 
 285   0.0000       5.528521       150.4387 
 286   0.0000       5.627447       153.1306 
 287   0.0000       5.963041       162.2626 
 288   0.0000       5.994590       163.1211 
 289   0.0000       6.092217       165.7777 
 290   0.0000       6.114152       166.3745 
 291   0.0000       6.151752       167.3977 
 292   0.0000       6.319050       171.9501 
 293   0.0000       6.542266       178.0241 
 294   0.0000       6.675165       181.6405 
 295   0.0000       7.312083       198.9719 
 296   0.0000       7.340694       199.7505 
 297   0.0000       7.368318       200.5021 
 298   0.0000       7.661717       208.4859 
 299   0.0000       7.759158       211.1374 
 300   0.0000      23.454064       638.2175 
 301   0.0000      23.522645       640.0837 
 302   0.0000      23.557149       641.0226 
 303   0.0000      23.670951       644.1193 
 304   0.0000      23.819547       648.1628 
 305   0.0000      23.859942       649.2620 
 306   0.0000      24.808166       675.0645 
 307   0.0000      45.870750      1248.2066 

                    ********************************
                    * MULLIKEN POPULATION ANALYSIS *
                    ********************************

-----------------------
MULLIKEN ATOMIC CHARGES
-----------------------
   0 C :   -0.368744
   1 C :    0.186741
   2 C :   -0.368380
   3 C :    0.018571
   4 O :   -0.421712
   5 C :   -0.014503
   6 C :   -0.160036
   7 C :   -0.010016
   8 H :    0.131043
   9 H :    0.109058
  10 H :    0.110168
  11 H :    0.110702
  12 H :    0.113013
  13 H :    0.113515
  14 H :    0.074472
  15 H :    0.084097
  16 H :    0.089214
  17 H :    0.202797
Sum of atomic charges:   -0.0000000

--------------------------------
MULLIKEN REDUCED ORBITAL CHARGES
--------------------------------
  0 C s       :     3.246296  s :     3.246296
      pz      :     1.047258  p :     3.039666
      px      :     1.071000
      py      :     0.921407
      dz2     :     0.013528  d :     0.078149
      dxz     :     0.013275
      dyz     :     0.014753
      dx2y2   :     0.015111
      dxy     :     0.021481
      f0      :     0.000608  f :     0.004633
      f+1     :     0.000705
      f-1     :     0.000604
      f+2     :     0.000606
      f-2     :     0.000139
      f+3     :     0.000769
      f-3     :     0.001204
  1 C s       :     2.916173  s :     2.916173
      pz      :     0.877576  p :     2.711207
      px      :     0.913066
      py      :     0.920565
      dz2     :     0.026222  d :     0.174628
      dxz     :     0.040447
      dyz     :     0.027193
      dx2y2   :     0.041474
      dxy     :     0.039292
      f0      :     0.001205  f :     0.011251
      f+1     :     0.001638
      f-1     :     0.001211
      f+2     :     0.001736
      f-2     :     0.001414
      f+3     :     0.002025
      f-3     :     0.002022
  2 C s       :     3.249323  s :     3.249323
      pz      :     1.053565  p :     3.036663
      px      :     0.964934
      py      :     1.018165
      dz2     :     0.014108  d :     0.077763
      dxz     :     0.021818
      dyz     :     0.005207
      dx2y2   :     0.025494
      dxy     :     0.011137
      f0      :     0.000470  f :     0.004630
      f+1     :     0.000919
      f-1     :     0.000560
      f+2     :     0.000411
      f-2     :     0.000369
      f+3     :     0.000765
      f-3     :     0.001135
  3 C s       :     3.217425  s :     3.217425
      pz      :     0.786183  p :     2.624979
      px      :     0.863391
      py      :     0.975405
      dz2     :     0.018150  d :     0.127556
      dxz     :     0.031951
      dyz     :     0.042746
      dx2y2   :     0.016751
      dxy     :     0.017957
      f0      :     0.002040  f :     0.011469
      f+1     :     0.002492
      f-1     :     0.001427
      f+2     :     0.002046
      f-2     :     0.002081
      f+3     :     0.000809
      f-3     :     0.000574
  4 O s       :     3.805804  s :     3.805804
      pz      :     1.241656  p :     4.573624
      px      :     1.488221
      py      :     1.843748
      dz2     :     0.006145  d :     0.040390
      dxz     :     0.017524
      dyz     :     0.004794
      dx2y2   :     0.007122
      dxy     :     0.004805
      f0      :     0.000232  f :     0.001893
      f+1     :     0.000391
      f-1     :     0.000179
      f+2     :     0.000431
      f-2     :     0.000254
      f+3     :     0.000211
      f-3     :     0.000196
  5 C s       :     3.255547  s :     3.255547
      pz      :     0.884960  p :     2.582203
      px      :     0.754194
      py      :     0.943049
      dz2     :     0.028547  d :     0.163791
      dxz     :     0.038495
      dyz     :     0.035220
      dx2y2   :     0.024654
      dxy     :     0.036875
      f0      :     0.001706  f :     0.012961
      f+1     :     0.002420
      f-1     :     0.001470
      f+2     :     0.002258
      f-2     :     0.002279
      f+3     :     0.001578
      f-3     :     0.001250
  6 C s       :     3.466572  s :     3.466572
      pz      :     0.730423  p :     2.573439
      px      :     0.979636
      py      :     0.863380
      dz2     :     0.037750  d :     0.107631
      dxz     :     0.021685
      dyz     :     0.026169
      dx2y2   :     0.011593
      dxy     :     0.010434
      f0      :     0.003142  f :     0.012394
      f+1     :     0.001614
      f-1     :     0.002235
      f+2     :     0.001977
      f-2     :     0.002420
      f+3     :     0.000523
      f-3     :     0.000483
  7 C s       :     2.982087  s :     2.982087
      pz      :     1.026328  p :     3.009081
      px      :     0.957337
      py      :     1.025417
      dz2     :     0.003558  d :     0.010452
      dxz     :     0.007513
      dyz     :    -0.006698
      dx2y2   :     0.002145
      dxy     :     0.003936
      f0      :     0.001894  f :     0.008396
      f+1     :     0.000949
      f-1     :     0.001971
      f+2     :     0.001415
      f-2     :     0.001594
      f+3     :     0.000294
      f-3     :     0.000279
  8 H s       :     0.846911  s :     0.846911
      pz      :     0.004333  p :     0.022046
      px      :     0.011466
      py      :     0.006247
  9 H s       :     0.869340  s :     0.869340
      pz      :     0.012046  p :     0.021603
      px      :     0.004513
      py      :     0.005043
 10 H s       :     0.867995  s :     0.867995
      pz      :     0.008462  p :     0.021837
      px      :     0.008615
      py      :     0.004760
 11 H s       :     0.867564  s :     0.867564
      pz      :     0.012372  p :     0.021734
      px      :     0.005032
      py      :     0.004330
 12 H s       :     0.865239  s :     0.865239
      pz      :     0.003634  p :     0.021748
      px      :     0.003639
      py      :     0.014475
 13 H s       :     0.864788  s :     0.864788
      pz      :     0.008043  p :     0.021697
      px      :     0.009586
      py      :     0.004068
 14 H s       :     0.904174  s :     0.904174
      pz      :     0.007000  p :     0.021354
      px      :     0.003302
      py      :     0.011052
 15 H s       :     0.894440  s :     0.894440
      pz      :     0.006417  p :     0.021463
      px      :     0.006112
      py      :     0.008934
 16 H s       :     0.888549  s :     0.888549
      pz      :     0.004526  p :     0.022237
      px      :     0.004581
      py      :     0.013131
 17 H s       :     0.772821  s :     0.772821
      pz      :     0.012658  p :     0.024381
      px      :     0.003599
      py      :     0.008124


                     *******************************
                     * LOEWDIN POPULATION ANALYSIS *
                     *******************************

----------------------
LOEWDIN ATOMIC CHARGES
----------------------
   0 C :   -0.236196
   1 C :   -0.270308
   2 C :   -0.242018
   3 C :   -0.190405
   4 O :    0.096592
   5 C :   -0.199601
   6 C :   -0.082623
   7 C :   -0.085452
   8 H :    0.124504
   9 H :    0.116196
  10 H :    0.119487
  11 H :    0.117861
  12 H :    0.115880
  13 H :    0.119058
  14 H :    0.110927
  15 H :    0.112299
  16 H :    0.148260
  17 H :    0.125541

-------------------------------
LOEWDIN REDUCED ORBITAL CHARGES
-------------------------------
  0 C s       :     2.818799  s :     2.818799
      pz      :     1.052261  p :     3.113645
      px      :     1.053946
      py      :     1.007439
      dz2     :     0.044505  d :     0.278931
      dxz     :     0.041824
      dyz     :     0.062788
      dx2y2   :     0.052267
      dxy     :     0.077546
      f0      :     0.003095  f :     0.024821
      f+1     :     0.002045
      f-1     :     0.003435
      f+2     :     0.004165
      f-2     :     0.002219
      f+3     :     0.004916
      f-3     :     0.004946
  1 C s       :     2.699045  s :     2.699045
      pz      :     0.913834  p :     2.895903
      px      :     0.978919
      py      :     1.003149
      dz2     :     0.092396  d :     0.608650
      dxz     :     0.132217
      dyz     :     0.102348
      dx2y2   :     0.149815
      dxy     :     0.131874
      f0      :     0.006662  f :     0.066710
      f+1     :     0.008589
      f-1     :     0.006810
      f+2     :     0.011501
      f-2     :     0.010420
      f+3     :     0.013436
      f-3     :     0.009292
  2 C s       :     2.821122  s :     2.821122
      pz      :     1.052973  p :     3.117862
      px      :     1.023606
      py      :     1.041283
      dz2     :     0.051139  d :     0.278389
      dxz     :     0.081040
      dyz     :     0.015228
      dx2y2   :     0.088598
      dxy     :     0.042383
      f0      :     0.002264  f :     0.024645
      f+1     :     0.003478
      f-1     :     0.003099
      f+2     :     0.002469
      f-2     :     0.003940
      f+3     :     0.004824
      f-3     :     0.004571
  3 C s       :     2.798755  s :     2.798755
      pz      :     0.862174  p :     2.808061
      px      :     0.926536
      py      :     1.019350
      dz2     :     0.088273  d :     0.509817
      dxz     :     0.137625
      dyz     :     0.151414
      dx2y2   :     0.064427
      dxy     :     0.068078
      f0      :     0.015826  f :     0.073773
      f+1     :     0.019875
      f-1     :     0.008116
      f+2     :     0.010360
      f-2     :     0.010341
      f+3     :     0.006032
      f-3     :     0.003223
  4 O s       :     3.328610  s :     3.328610
      pz      :     1.259812  p :     4.479024
      px      :     1.500327
      py      :     1.718884
      dz2     :     0.020158  d :     0.089462
      dxz     :     0.033476
      dyz     :     0.013232
      dx2y2   :     0.011981
      dxy     :     0.010615
      f0      :     0.001012  f :     0.006312
      f+1     :     0.001590
      f-1     :     0.000556
      f+2     :     0.001307
      f-2     :     0.000986
      f+3     :     0.000386
      f-3     :     0.000473
  5 C s       :     2.732939  s :     2.732939
      pz      :     0.931708  p :     2.747762
      px      :     0.826610
      py      :     0.989445
      dz2     :     0.143165  d :     0.632700
      dxz     :     0.148729
      dyz     :     0.128534
      dx2y2   :     0.099410
      dxy     :     0.112863
      f0      :     0.015314  f :     0.086201
      f+1     :     0.017003
      f-1     :     0.007275
      f+2     :     0.015032
      f-2     :     0.012813
      f+3     :     0.010527
      f-3     :     0.008237
  6 C s       :     2.804965  s :     2.804965
      pz      :     1.049536  p :     2.901628
      px      :     0.889921
      py      :     0.962172
      dz2     :     0.105084  d :     0.330376
      dxz     :     0.070471
      dyz     :     0.079263
      dx2y2   :     0.040185
      dxy     :     0.035373
      f0      :     0.008734  f :     0.045654
      f+1     :     0.004575
      f-1     :     0.013847
      f+2     :     0.008439
      f-2     :     0.007032
      f+3     :     0.001548
      f-3     :     0.001479
  7 C s       :     2.885015  s :     2.885015
      pz      :     1.075345  p :     3.019574
      px      :     0.920493
      py      :     1.023736
      dz2     :     0.040903  d :     0.145309
      dxz     :     0.027701
      dyz     :     0.047824
      dx2y2   :     0.014562
      dxy     :     0.014319
      f0      :     0.006159  f :     0.035553
      f+1     :     0.003469
      f-1     :     0.011554
      f+2     :     0.006523
      f-2     :     0.005697
      f+3     :     0.001079
      f-3     :     0.001073
  8 H s       :     0.815022  s :     0.815022
      pz      :     0.013550  p :     0.060474
      px      :     0.030710
      py      :     0.016214
  9 H s       :     0.824464  s :     0.824464
      pz      :     0.031102  p :     0.059340
      px      :     0.014279
      py      :     0.013959
 10 H s       :     0.820591  s :     0.820591
      pz      :     0.023039  p :     0.059922
      px      :     0.023411
      py      :     0.013472
 11 H s       :     0.822603  s :     0.822603
      pz      :     0.031293  p :     0.059536
      px      :     0.014292
      py      :     0.013951
 12 H s       :     0.824665  s :     0.824665
      pz      :     0.012161  p :     0.059455
      px      :     0.011867
      py      :     0.035427
 13 H s       :     0.821282  s :     0.821282
      pz      :     0.022625  p :     0.059660
      px      :     0.023738
      py      :     0.013298
 14 H s       :     0.831796  s :     0.831796
      pz      :     0.017563  p :     0.057277
      px      :     0.010917
      py      :     0.028796
 15 H s       :     0.830115  s :     0.830115
      pz      :     0.016246  p :     0.057586
      px      :     0.016517
      py      :     0.024823
 16 H s       :     0.796528  s :     0.796528
      pz      :     0.012351  p :     0.055212
      px      :     0.012752
      py      :     0.030108
 17 H s       :     0.804518  s :     0.804518
      pz      :     0.033952  p :     0.069941
      px      :     0.012518
      py      :     0.023471


                      *****************************
                      * MAYER POPULATION ANALYSIS *
                      *****************************

  NA   - Mulliken gross atomic population
  ZA   - Total nuclear charge
  QA   - Mulliken gross atomic charge
  VA   - Mayer's total valence
  BVA  - Mayer's bonded valence
  FA   - Mayer's free valence

  ATOM       NA         ZA         QA         VA         BVA        FA
  0 C      6.3687     6.0000    -0.3687     3.9262     3.9262     0.0000
  1 C      5.8133     6.0000     0.1867     3.8836     3.8836    -0.0000
  2 C      6.3684     6.0000    -0.3684     3.9066     3.9066    -0.0000
  3 C      5.9814     6.0000     0.0186     3.9360     3.9360     0.0000
  4 O      8.4217     8.0000    -0.4217     1.8831     1.8831     0.0000
  5 C      6.0145     6.0000    -0.0145     3.9897     3.9897    -0.0000
  6 C      6.1600     6.0000    -0.1600     4.0842     4.0842    -0.0000
  7 C      6.0100     6.0000    -0.0100     3.4814     3.4814    -0.0000
  8 H      0.8690     1.0000     0.1310     0.9667     0.9667    -0.0000
  9 H      0.8909     1.0000     0.1091     0.9707     0.9707     0.0000
 10 H      0.8898     1.0000     0.1102     0.9796     0.9796     0.0000
 11 H      0.8893     1.0000     0.1107     0.9746     0.9746     0.0000
 12 H      0.8870     1.0000     0.1130     0.9683     0.9683    -0.0000
 13 H      0.8865     1.0000     0.1135     0.9744     0.9744     0.0000
 14 H      0.9255     1.0000     0.0745     0.9612     0.9612     0.0000
 15 H      0.9159     1.0000     0.0841     0.9603     0.9603    -0.0000
 16 H      0.9108     1.0000     0.0892     0.9539     0.9539     0.0000
 17 H      0.7972     1.0000     0.2028     0.9661     0.9661    -0.0000

  Mayer bond orders larger than 0.1
B(  0-C ,  1-C ) :   0.9764 B(  0-C ,  8-H ) :   0.9843 B(  0-C ,  9-H ) :   0.9847 
B(  0-C , 10-H ) :   0.9804 B(  1-C ,  2-C ) :   0.9679 B(  1-C ,  3-C ) :   0.9998 
B(  1-C ,  5-C ) :   0.9726 B(  2-C , 11-H ) :   0.9843 B(  2-C , 12-H ) :   0.9840 
B(  2-C , 13-H ) :   0.9844 B(  3-C ,  4-O ) :   0.9466 B(  3-C , 14-H ) :   0.9653 
B(  3-C , 15-H ) :   0.9666 B(  4-O ,  5-C ) :   0.9939 B(  5-C ,  6-C ) :   1.2534 
B(  5-C ,  7-C ) :  -0.2190 B(  5-C , 16-H ) :   0.9600 B(  6-C ,  7-C ) :   2.7713 
B(  7-C , 17-H ) :   0.9101 

-------
TIMINGS
-------

Total SCF time: 0 days 0 hours 1 min 53 sec 

Total time                  ....     113.281 sec
Sum of individual times     ....     117.017 sec  (103.3%)

Fock matrix formation       ....     112.036 sec  ( 98.9%)
Diagonalization             ....       0.553 sec  (  0.5%)
Density matrix formation    ....       0.035 sec  (  0.0%)
Population analysis         ....       0.124 sec  (  0.1%)
Initial guess               ....       2.602 sec  (  2.3%)
Orbital Transformation      ....       0.000 sec  (  0.0%)
Orbital Orthonormalization  ....       0.000 sec  (  0.0%)
DIIS solution               ....       0.158 sec  (  0.1%)
SOSCF solution              ....       0.250 sec  (  0.2%)

   <<< Auxbasis replaced with dsgdb9nsd_006812.AUXC.tmp (Dim=758) >>> 


------------------------------------------------------------------------------
                              ORCA MP2 CALCULATION
------------------------------------------------------------------------------

Freezing NCore=16 chemical core electrons

   <<< Use J-auxbasis for calculation of Separable RI-J derivative contributions dsgdb9nsd_006812.AUXJ.tmp (Dim=782) >>> 


---------------------
RI-MP2 ENERGY+DENSITY
---------------------
Dimension of the basis                    ...  308
Memory devoted to MP2                     ... 2000 MB   
Data format for buffers                   ... DOUBLE
Compression type for matrix containers    ... UNCOMPRESSED
Overall scaling of the MP2 energy         ...   1.000e+00 Eh
Calculating two index integrals           ... done (    0.016 sec)
Cholesky decomposition of V**-1           ... done (    0.093 sec)

-----------------
RI-TRANSFORMATION (AUX index driven)
-----------------

Dimension of the orbital-basis         ... 308
Dimension of the aux-basis             ... 758
Transformation of internal MOs         ...    0-  29
Transformation of internal/external MOs...    0-  29 to   30- 307
Number Format for Storage              ... Double (8 Byte)
Integral mode                          ... Direct

First Phase: integral generation and transformation of MO indices
  Aux angular momentum 0               ... done (    0.675 sec)
  Aux angular momentum 1               ... done (    0.914 sec)
  Aux angular momentum 2               ... done (    0.955 sec)
  Aux angular momentum 3               ... done (    0.703 sec)
  Aux angular momentum 4               ... done (    0.316 sec)
Closing buffer VIJ ( 0.00 GB; CompressionRatio= 1.93)
Closing buffer VIA ( 0.05 GB; CompressionRatio= 1.00)
  Phase 1 completed in     3.663 sec
Second Phase: sorting and transformation of aux index

IJ-Transformation
Memory available                       ... 1989 MB 
Max. # MO pairs treated in a batch     ... 30    
# of internal orbitals                 ... 30
# batches for internal orbitals        ... 1
Closing buffer IJV ( 0.00 GB; CompressionRatio= 1.00)
(ij|v) transformation done in     0.137 sec

IA-Transformation
Memory available                       ... 1989 MB 
Max. # MO pairs treated in a batch     ... 30    
# of internal orbitals                 ... 30
# batches for internal orbitals        ... 1
Closing buffer IAV ( 0.05 GB; CompressionRatio= 1.00)
(ia|v) transformation done in     1.012 sec

  Phase 2 completed in     1.165 sec
RI-Integral transformation completed in     4.828 sec
Opening buffers                              ... done
Frozen core precalculation                   ... done

Starting loop over batches of integrals:

Operator 0  - window                       ... (  8- 29)x( 30-307)
Operator 0  - Memory available             ...  2000 MB
Operator 0  - Memory needed per MO         ...   3.2 MB
Operator 0  - Number of orbitals per batch ... 22
Operator 0  - Number of batches            ... 1

OPERATOR  0   PASS   0:  MOs     8 ...   29
  Reading integrals       ... ok
  Internal MO  10
  Internal MO  13
  Internal MO  16
  Internal MO  19
  Internal MO  22
  Internal MO  25
  Internal MO  28
Time spent in pair loops =    24.505 sec
Deleting buffer (Ka|jb)[aa] ...done

-----------------------------------------------
 RI-MP2 CORRELATION ENERGY:     -1.358665355 Eh
-----------------------------------------------


---------------------
MP2 DENSITY FORMATION
---------------------

Completing the external part of the density      ... done
Storing the unrelaxed density                    ... done

Calculating G(D)                                 ... done
Completing the Lagrangian                        ... done
Solving the Z-vector equations                   ... 

------------------------------------------------------------------------------
                           ORCA CP-SCF CALCULATION
------------------------------------------------------------------------------

Input orbitals are from        ... dsgdb9nsd_006812.gbw
Input Perturbation             ... dsgdb9nsd_006812.pin.tmp
Wavefunction output            ... dsgdb9nsd_006812.pout.tmp
Perturbation mode              ... Real perturbation
Solver                         ... POPLE
Max. number of iterations      ... 128
Convergence tolerance          ... 1.000e-08
Integral handling              ... Direct
Number of perturbations        ... 1
Number of operators            ... 1
Orbital ranges used for CP-SCF:
 Operator 0:  Orbitals   0... 29  to  30...307
Variables per vector in CP-SCF ... 8340
Number of vectors sought       ... 1
     CP-SCF ITERATION   0: 
     CP-SCF ITERATION   1:      0.001036263
     CP-SCF ITERATION   2:      0.000149896
     CP-SCF ITERATION   3:      0.000019410
     CP-SCF ITERATION   4:      0.000007555
     CP-SCF ITERATION   5:      0.000001457
     CP-SCF ITERATION   6:      0.000000195
     CP-SCF ITERATION   7:      0.000000026
     CP-SCF ITERATION   8:      0.000000002
done
Finalizing the relaxed density                   ... done
Transforming P to the AO basis                   ... done
Storing the relaxed density                      ... done

                *********************************************
                * UNRELAXED MP2 DENSITY POPULATION ANALYSIS *
                *********************************************

------------------------------------------------------------------------------
                           ORCA POPULATION ANALYSIS
------------------------------------------------------------------------------
Input electron density              ... dsgdb9nsd_006812.pmp2ur
BaseName (.gbw .S,...)              ... dsgdb9nsd_006812

                    ********************************
                    * MULLIKEN POPULATION ANALYSIS *
                    ********************************

-----------------------
MULLIKEN ATOMIC CHARGES
-----------------------
   0 C :   -0.377113
   1 C :    0.179340
   2 C :   -0.376359
   3 C :    0.003384
   4 O :   -0.400504
   5 C :   -0.025113
   6 C :   -0.165189
   7 C :   -0.009971
   8 H :    0.134290
   9 H :    0.112590
  10 H :    0.113641
  11 H :    0.114097
  12 H :    0.116321
  13 H :    0.116853
  14 H :    0.077573
  15 H :    0.087310
  16 H :    0.092792
  17 H :    0.206057
Sum of atomic charges:   -0.0000000

--------------------------------
MULLIKEN REDUCED ORBITAL CHARGES
--------------------------------
  0 C s       :     3.243736  s :     3.243736
      pz      :     1.041821  p :     3.021264
      px      :     1.064458
      py      :     0.914985
      dz2     :     0.018613  d :     0.103788
      dxz     :     0.018915
      dyz     :     0.020484
      dx2y2   :     0.019093
      dxy     :     0.026683
      f0      :     0.001152  f :     0.008326
      f+1     :     0.001217
      f-1     :     0.001102
      f+2     :     0.001162
      f-2     :     0.000686
      f+3     :     0.001347
      f-3     :     0.001660
  1 C s       :     2.915300  s :     2.915300
      pz      :     0.872780  p :     2.692726
      px      :     0.906126
      py      :     0.913820
      dz2     :     0.030592  d :     0.197151
      dxz     :     0.044078
      dyz     :     0.032438
      dx2y2   :     0.045710
      dxy     :     0.044333
      f0      :     0.001782  f :     0.015484
      f+1     :     0.002213
      f-1     :     0.001727
      f+2     :     0.002379
      f-2     :     0.002005
      f+3     :     0.002779
      f-3     :     0.002599
  2 C s       :     3.246499  s :     3.246499
      pz      :     1.047782  p :     3.018306
      px      :     0.958195
      py      :     1.012329
      dz2     :     0.019190  d :     0.103232
      dxz     :     0.026804
      dyz     :     0.011279
      dx2y2   :     0.029984
      dxy     :     0.015976
      f0      :     0.001019  f :     0.008322
      f+1     :     0.001444
      f-1     :     0.001049
      f+2     :     0.000963
      f-2     :     0.000905
      f+3     :     0.001344
      f-3     :     0.001597
  3 C s       :     3.215255  s :     3.215255
      pz      :     0.786904  p :     2.618662
      px      :     0.860486
      py      :     0.971272
      dz2     :     0.022347  d :     0.147695
      dxz     :     0.034982
      dyz     :     0.046917
      dx2y2   :     0.021135
      dxy     :     0.022314
      f0      :     0.002521  f :     0.015004
      f+1     :     0.002953
      f-1     :     0.002016
      f+2     :     0.002542
      f-2     :     0.002584
      f+3     :     0.001316
      f-3     :     0.001072
  4 O s       :     3.799023  s :     3.799023
      pz      :     1.229480  p :     4.528069
      px      :     1.472540
      py      :     1.826049
      dz2     :     0.011798  d :     0.068731
      dxz     :     0.022649
      dyz     :     0.010736
      dx2y2   :     0.012850
      dxy     :     0.010699
      f0      :     0.000622  f :     0.004681
      f+1     :     0.000796
      f-1     :     0.000557
      f+2     :     0.000830
      f-2     :     0.000660
      f+3     :     0.000614
      f-3     :     0.000602
  5 C s       :     3.251222  s :     3.251222
      pz      :     0.880101  p :     2.572395
      px      :     0.754326
      py      :     0.937968
      dz2     :     0.033625  d :     0.184577
      dxz     :     0.041319
      dyz     :     0.039123
      dx2y2   :     0.029018
      dxy     :     0.041492
      f0      :     0.002382  f :     0.016919
      f+1     :     0.003001
      f-1     :     0.002040
      f+2     :     0.002776
      f-2     :     0.002881
      f+3     :     0.002042
      f-3     :     0.001796
  6 C s       :     3.460528  s :     3.460528
      pz      :     0.730391  p :     2.561150
      px      :     0.971861
      py      :     0.858897
      dz2     :     0.040562  d :     0.127860
      dxz     :     0.025767
      dyz     :     0.030185
      dx2y2   :     0.016271
      dxy     :     0.015074
      f0      :     0.003680  f :     0.015651
      f+1     :     0.002122
      f-1     :     0.002732
      f+2     :     0.002424
      f-2     :     0.002879
      f+3     :     0.000927
      f-3     :     0.000887
  7 C s       :     2.973342  s :     2.973342
      pz      :     1.017973  p :     2.987582
      px      :     0.951759
      py      :     1.017850
      dz2     :     0.009148  d :     0.037685
      dxz     :     0.012207
      dyz     :     0.000471
      dx2y2   :     0.007139
      dxy     :     0.008719
      f0      :     0.002376  f :     0.011362
      f+1     :     0.001409
      f-1     :     0.002429
      f+2     :     0.001822
      f-2     :     0.002004
      f+3     :     0.000669
      f-3     :     0.000653
  8 H s       :     0.840534  s :     0.840534
      pz      :     0.005443  p :     0.025176
      px      :     0.012408
      py      :     0.007326
  9 H s       :     0.862655  s :     0.862655
      pz      :     0.012986  p :     0.024755
      px      :     0.005619
      py      :     0.006150
 10 H s       :     0.861389  s :     0.861389
      pz      :     0.009468  p :     0.024969
      px      :     0.009631
      py      :     0.005870
 11 H s       :     0.861043  s :     0.861043
      pz      :     0.013293  p :     0.024860
      px      :     0.006129
      py      :     0.005438
 12 H s       :     0.858766  s :     0.858766
      pz      :     0.004766  p :     0.024914
      px      :     0.004783
      py      :     0.015365
 13 H s       :     0.858325  s :     0.858325
      pz      :     0.009062  p :     0.024823
      px      :     0.010579
      py      :     0.005181
 14 H s       :     0.897884  s :     0.897884
      pz      :     0.008065  p :     0.024543
      px      :     0.004491
      py      :     0.011987
 15 H s       :     0.888093  s :     0.888093
      pz      :     0.007475  p :     0.024596
      px      :     0.007192
      py      :     0.009930
 16 H s       :     0.881883  s :     0.881883
      pz      :     0.005610  p :     0.025325
      px      :     0.005726
      py      :     0.013989
 17 H s       :     0.766920  s :     0.766920
      pz      :     0.013360  p :     0.027022
      px      :     0.004659
      py      :     0.009004


                     *******************************
                     * LOEWDIN POPULATION ANALYSIS *
                     *******************************

----------------------
LOEWDIN ATOMIC CHARGES
----------------------
   0 C :   -0.242412
   1 C :   -0.269786
   2 C :   -0.248367
   3 C :   -0.199981
   4 O :    0.110618
   5 C :   -0.207538
   6 C :   -0.082363
   7 C :   -0.087540
   8 H :    0.126425
   9 H :    0.118102
  10 H :    0.121401
  11 H :    0.119735
  12 H :    0.117726
  13 H :    0.120934
  14 H :    0.112400
  15 H :    0.113861
  16 H :    0.149476
  17 H :    0.127306

-------------------------------
LOEWDIN REDUCED ORBITAL CHARGES
-------------------------------
  0 C s       :     2.817015  s :     2.817015
      pz      :     1.044619  p :     3.088731
      px      :     1.046221
      py      :     0.997891
      dz2     :     0.050385  d :     0.306367
      dxz     :     0.047671
      dyz     :     0.067781
      dx2y2   :     0.058212
      dxy     :     0.082319
      f0      :     0.003817  f :     0.030299
      f+1     :     0.002795
      f-1     :     0.004289
      f+2     :     0.004885
      f-2     :     0.002935
      f+3     :     0.005642
      f-3     :     0.005937
  1 C s       :     2.697545  s :     2.697545
      pz      :     0.905765  p :     2.867881
      px      :     0.969212
      py      :     0.992905
      dz2     :     0.097142  d :     0.630683
      dxz     :     0.136432
      dyz     :     0.106662
      dx2y2   :     0.154201
      dxy     :     0.136246
      f0      :     0.007562  f :     0.073678
      f+1     :     0.009604
      f-1     :     0.007694
      f+2     :     0.012429
      f-2     :     0.011358
      f+3     :     0.014396
      f-3     :     0.010635
  2 C s       :     2.819346  s :     2.819346
      pz      :     1.045303  p :     3.093236
      px      :     1.014504
      py      :     1.033428
      dz2     :     0.056783  d :     0.305674
      dxz     :     0.086141
      dyz     :     0.021158
      dx2y2   :     0.093497
      dxy     :     0.048095
      f0      :     0.003008  f :     0.030111
      f+1     :     0.004331
      f-1     :     0.003813
      f+2     :     0.003215
      f-2     :     0.004654
      f+3     :     0.005541
      f-3     :     0.005549
  3 C s       :     2.797754  s :     2.797754
      pz      :     0.859482  p :     2.792939
      px      :     0.920546
      py      :     1.012911
      dz2     :     0.091839  d :     0.530271
      dxz     :     0.141298
      dyz     :     0.155214
      dx2y2   :     0.069155
      dxy     :     0.072765
      f0      :     0.016357  f :     0.079017
      f+1     :     0.020572
      f-1     :     0.008857
      f+2     :     0.011293
      f-2     :     0.011288
      f+3     :     0.006678
      f-3     :     0.003973
  4 O s       :     3.325288  s :     3.325288
      pz      :     1.247038  p :     4.434615
      px      :     1.484913
      py      :     1.702664
      dz2     :     0.026020  d :     0.120045
      dxz     :     0.039886
      dyz     :     0.019216
      dx2y2   :     0.018301
      dxy     :     0.016622
      f0      :     0.001449  f :     0.009433
      f+1     :     0.002086
      f-1     :     0.000967
      f+2     :     0.001780
      f-2     :     0.001432
      f+3     :     0.000820
      f-3     :     0.000898
  5 C s       :     2.732144  s :     2.732144
      pz      :     0.924204  p :     2.730003
      px      :     0.823876
      py      :     0.981923
      dz2     :     0.146639  d :     0.652682
      dxz     :     0.152186
      dyz     :     0.133095
      dx2y2   :     0.103780
      dxy     :     0.116981
      f0      :     0.016260  f :     0.092708
      f+1     :     0.017766
      f-1     :     0.008461
      f+2     :     0.016186
      f-2     :     0.013884
      f+3     :     0.011255
      f-3     :     0.008896
  6 C s       :     2.801195  s :     2.801195
      pz      :     1.038008  p :     2.870448
      px      :     0.879824
      py      :     0.952616
      dz2     :     0.110140  d :     0.358132
      dxz     :     0.075653
      dyz     :     0.086625
      dx2y2   :     0.045207
      dxy     :     0.040507
      f0      :     0.010155  f :     0.052589
      f+1     :     0.005564
      f-1     :     0.015076
      f+2     :     0.009462
      f-2     :     0.008168
      f+3     :     0.002119
      f-3     :     0.002045
  7 C s       :     2.881292  s :     2.881292
      pz      :     1.064043  p :     2.987888
      px      :     0.911394
      py      :     1.012451
      dz2     :     0.048083  d :     0.177081
      dxz     :     0.033764
      dyz     :     0.055284
      dx2y2   :     0.020156
      dxy     :     0.019794
      f0      :     0.007316  f :     0.041279
      f+1     :     0.004266
      f-1     :     0.012580
      f+2     :     0.007378
      f-2     :     0.006608
      f+3     :     0.001569
      f-3     :     0.001562
  8 H s       :     0.807792  s :     0.807792
      pz      :     0.014923  p :     0.065783
      px      :     0.032969
      py      :     0.017891
  9 H s       :     0.817192  s :     0.817192
      pz      :     0.033539  p :     0.064706
      px      :     0.015686
      py      :     0.015480
 10 H s       :     0.813359  s :     0.813359
      pz      :     0.024913  p :     0.065240
      px      :     0.025359
      py      :     0.014968
 11 H s       :     0.815414  s :     0.815414
      pz      :     0.033719  p :     0.064851
      px      :     0.015787
      py      :     0.015345
 12 H s       :     0.817446  s :     0.817446
      pz      :     0.013466  p :     0.064827
      px      :     0.013226
      py      :     0.038134
 13 H s       :     0.814106  s :     0.814106
      pz      :     0.024488  p :     0.064960
      px      :     0.025816
      py      :     0.014656
 14 H s       :     0.824794  s :     0.824794
      pz      :     0.019511  p :     0.062806
      px      :     0.012342
      py      :     0.030953
 15 H s       :     0.823104  s :     0.823104
      pz      :     0.018110  p :     0.063035
      px      :     0.018198
      py      :     0.026727
 16 H s       :     0.789701  s :     0.789701
      pz      :     0.013901  p :     0.060823
      px      :     0.014461
      py      :     0.032460
 17 H s       :     0.798193  s :     0.798193
      pz      :     0.035652  p :     0.074501
      px      :     0.013874
      py      :     0.024975


                      *****************************
                      * MAYER POPULATION ANALYSIS *
                      *****************************

  NA   - Mulliken gross atomic population
  ZA   - Total nuclear charge
  QA   - Mulliken gross atomic charge
  VA   - Mayer's total valence
  BVA  - Mayer's bonded valence
  FA   - Mayer's free valence

  ATOM       NA         ZA         QA         VA         BVA        FA
  0 C      6.3771     6.0000    -0.3771     4.0491     3.7423     0.3068
  1 C      5.8207     6.0000     0.1793     3.9683     3.6166     0.3517
  2 C      6.3764     6.0000    -0.3764     4.0291     3.7246     0.3045
  3 C      5.9966     6.0000     0.0034     4.0313     3.7176     0.3137
  4 O      8.4005     8.0000    -0.4005     2.1795     1.7387     0.4409
  5 C      6.0251     6.0000    -0.0251     4.0801     3.7510     0.3291
  6 C      6.1652     6.0000    -0.1652     4.2025     3.7675     0.4351
  7 C      6.0100     6.0000    -0.0100     3.6289     3.2068     0.4221
  8 H      0.8657     1.0000     0.1343     0.9749     0.9255     0.0494
  9 H      0.8874     1.0000     0.1126     0.9795     0.9290     0.0505
 10 H      0.8864     1.0000     0.1136     0.9881     0.9379     0.0503
 11 H      0.8859     1.0000     0.1141     0.9832     0.9330     0.0503
 12 H      0.8837     1.0000     0.1163     0.9771     0.9269     0.0502
 13 H      0.8831     1.0000     0.1169     0.9829     0.9328     0.0501
 14 H      0.9224     1.0000     0.0776     0.9712     0.9185     0.0527
 15 H      0.9127     1.0000     0.0873     0.9698     0.9182     0.0516
 16 H      0.9072     1.0000     0.0928     0.9639     0.9099     0.0539
 17 H      0.7939     1.0000     0.2061     0.9698     0.9289     0.0409

  Mayer bond orders larger than 0.1
B(  0-C ,  1-C ) :   0.9146 B(  0-C ,  8-H ) :   0.9443 B(  0-C ,  9-H ) :   0.9447 
B(  0-C , 10-H ) :   0.9407 B(  1-C ,  2-C ) :   0.9075 B(  1-C ,  3-C ) :   0.9331 
B(  1-C ,  5-C ) :   0.9055 B(  2-C , 11-H ) :   0.9446 B(  2-C , 12-H ) :   0.9439 
B(  2-C , 13-H ) :   0.9446 B(  3-C ,  4-O ) :   0.8794 B(  3-C , 14-H ) :   0.9251 
B(  3-C , 15-H ) :   0.9268 B(  4-O ,  5-C ) :   0.9239 B(  5-C ,  6-C ) :   1.1898 
B(  5-C ,  7-C ) :  -0.2125 B(  5-C , 16-H ) :   0.9191 B(  6-C ,  7-C ) :   2.5286 
B(  7-C , 17-H ) :   0.8788 


                *******************************************
                * RELAXED MP2 DENSITY POPULATION ANALYSIS *
                *******************************************

------------------------------------------------------------------------------
                           ORCA POPULATION ANALYSIS
------------------------------------------------------------------------------
Input electron density              ... dsgdb9nsd_006812.pmp2re
BaseName (.gbw .S,...)              ... dsgdb9nsd_006812

                    ********************************
                    * MULLIKEN POPULATION ANALYSIS *
                    ********************************

-----------------------
MULLIKEN ATOMIC CHARGES
-----------------------
   0 C :   -0.430112
   1 C :    0.108724
   2 C :   -0.420702
   3 C :   -0.044638
   4 O :   -0.307276
   5 C :   -0.086989
   6 C :   -0.043701
   7 C :   -0.094172
   8 H :    0.154094
   9 H :    0.134355
  10 H :    0.134643
  11 H :    0.134859
  12 H :    0.136855
  13 H :    0.137609
  14 H :    0.091455
  15 H :    0.101483
  16 H :    0.099920
  17 H :    0.193594
Sum of atomic charges:   -0.0000000

--------------------------------
MULLIKEN REDUCED ORBITAL CHARGES
--------------------------------
  0 C s       :     3.259685  s :     3.259685
      pz      :     1.065518  p :     3.071364
      px      :     1.084283
      py      :     0.921563
      dz2     :     0.015180  d :     0.091137
      dxz     :     0.015612
      dyz     :     0.020324
      dx2y2   :     0.014979
      dxy     :     0.025042
      f0      :     0.001123  f :     0.007926
      f+1     :     0.001159
      f-1     :     0.001008
      f+2     :     0.001150
      f-2     :     0.000673
      f+3     :     0.001316
      f-3     :     0.001497
  1 C s       :     2.996074  s :     2.996074
      pz      :     0.881235  p :     2.696106
      px      :     0.897869
      py      :     0.917002
      dz2     :     0.027393  d :     0.184376
      dxz     :     0.039832
      dyz     :     0.032649
      dx2y2   :     0.041954
      dxy     :     0.042548
      f0      :     0.001722  f :     0.014720
      f+1     :     0.002066
      f-1     :     0.001546
      f+2     :     0.002333
      f-2     :     0.001885
      f+3     :     0.002859
      f-3     :     0.002309
  2 C s       :     3.255062  s :     3.255062
      pz      :     1.067786  p :     3.067166
      px      :     0.966170
      py      :     1.033209
      dz2     :     0.016014  d :     0.090552
      dxz     :     0.024172
      dyz     :     0.010201
      dx2y2   :     0.026340
      dxy     :     0.013825
      f0      :     0.000981  f :     0.007921
      f+1     :     0.001365
      f-1     :     0.000996
      f+2     :     0.000934
      f-2     :     0.000882
      f+3     :     0.001314
      f-3     :     0.001449
  3 C s       :     3.225029  s :     3.225029
      pz      :     0.801411  p :     2.666534
      px      :     0.867552
      py      :     0.997571
      dz2     :     0.022471  d :     0.138792
      dxz     :     0.032222
      dyz     :     0.043945
      dx2y2   :     0.019330
      dxy     :     0.020824
      f0      :     0.002386  f :     0.014283
      f+1     :     0.002870
      f-1     :     0.002009
      f+2     :     0.002381
      f-2     :     0.002420
      f+3     :     0.001214
      f-3     :     0.001002
  4 O s       :     3.789937  s :     3.789937
      pz      :     1.212495  p :     4.445834
      px      :     1.449384
      py      :     1.783955
      dz2     :     0.011691  d :     0.066857
      dxz     :     0.020479
      dyz     :     0.010931
      dx2y2   :     0.012649
      dxy     :     0.011108
      f0      :     0.000621  f :     0.004649
      f+1     :     0.000777
      f-1     :     0.000557
      f+2     :     0.000810
      f-2     :     0.000659
      f+3     :     0.000616
      f-3     :     0.000609
  5 C s       :     3.268363  s :     3.268363
      pz      :     0.882319  p :     2.621561
      px      :     0.771918
      py      :     0.967324
      dz2     :     0.037316  d :     0.180886
      dxz     :     0.037794
      dyz     :     0.037550
      dx2y2   :     0.027707
      dxy     :     0.040519
      f0      :     0.002409  f :     0.016179
      f+1     :     0.002859
      f-1     :     0.001869
      f+2     :     0.002611
      f-2     :     0.002774
      f+3     :     0.001908
      f-3     :     0.001750
  6 C s       :     3.331299  s :     3.331299
      pz      :     0.745528  p :     2.591917
      px      :     0.949868
      py      :     0.896521
      dz2     :     0.032052  d :     0.105442
      dxz     :     0.021684
      dyz     :     0.024229
      dx2y2   :     0.014438
      dxy     :     0.013039
      f0      :     0.003514  f :     0.015043
      f+1     :     0.002059
      f-1     :     0.002580
      f+2     :     0.002316
      f-2     :     0.002813
      f+3     :     0.000900
      f-3     :     0.000860
  7 C s       :     3.034095  s :     3.034095
      pz      :     1.020850  p :     3.022847
      px      :     0.972326
      py      :     1.029671
      dz2     :     0.005076  d :     0.026784
      dxz     :     0.007742
      dyz     :     0.001528
      dx2y2   :     0.005964
      dxy     :     0.006474
      f0      :     0.002160  f :     0.010446
      f+1     :     0.001287
      f-1     :     0.002259
      f+2     :     0.001683
      f-2     :     0.001800
      f+3     :     0.000635
      f-3     :     0.000623
  8 H s       :     0.821818  s :     0.821818
      pz      :     0.005576  p :     0.024088
      px      :     0.011340
      py      :     0.007172
  9 H s       :     0.841827  s :     0.841827
      pz      :     0.011868  p :     0.023818
      px      :     0.005753
      py      :     0.006197
 10 H s       :     0.841429  s :     0.841429
      pz      :     0.008918  p :     0.023928
      px      :     0.009078
      py      :     0.005932
 11 H s       :     0.841250  s :     0.841250
      pz      :     0.012145  p :     0.023891
      px      :     0.006181
      py      :     0.005565
 12 H s       :     0.839222  s :     0.839222
      pz      :     0.005028  p :     0.023923
      px      :     0.005016
      py      :     0.013879
 13 H s       :     0.838560  s :     0.838560
      pz      :     0.008580  p :     0.023831
      px      :     0.009903
      py      :     0.005348
 14 H s       :     0.885096  s :     0.885096
      pz      :     0.007708  p :     0.023449
      px      :     0.004721
      py      :     0.011021
 15 H s       :     0.875056  s :     0.875056
      pz      :     0.007205  p :     0.023461
      px      :     0.006971
      py      :     0.009284
 16 H s       :     0.875999  s :     0.875999
      pz      :     0.005720  p :     0.024081
      px      :     0.005689
      py      :     0.012672
 17 H s       :     0.780763  s :     0.780763
      pz      :     0.012180  p :     0.025643
      px      :     0.004945
      py      :     0.008518


                     *******************************
                     * LOEWDIN POPULATION ANALYSIS *
                     *******************************

----------------------
LOEWDIN ATOMIC CHARGES
----------------------
   0 C :   -0.266232
   1 C :   -0.282508
   2 C :   -0.273128
   3 C :   -0.228885
   4 O :    0.147802
   5 C :   -0.235381
   6 C :   -0.082617
   7 C :   -0.079467
   8 H :    0.134948
   9 H :    0.127673
  10 H :    0.130144
  11 H :    0.128772
  12 H :    0.126664
  13 H :    0.129860
  14 H :    0.118818
  15 H :    0.120369
  16 H :    0.154960
  17 H :    0.128207

-------------------------------
LOEWDIN REDUCED ORBITAL CHARGES
-------------------------------
  0 C s       :     2.822888  s :     2.822888
      pz      :     1.058554  p :     3.120333
      px      :     1.059796
      py      :     1.001982
      dz2     :     0.046155  d :     0.293155
      dxz     :     0.043593
      dyz     :     0.067963
      dx2y2   :     0.054010
      dxy     :     0.081433
      f0      :     0.003775  f :     0.029856
      f+1     :     0.002703
      f-1     :     0.004194
      f+2     :     0.004896
      f-2     :     0.002853
      f+3     :     0.005636
      f-3     :     0.005799
  1 C s       :     2.703958  s :     2.703958
      pz      :     0.915137  p :     2.878047
      px      :     0.969645
      py      :     0.993266
      dz2     :     0.095402  d :     0.626846
      dxz     :     0.133352
      dyz     :     0.107634
      dx2y2   :     0.153096
      dxy     :     0.137362
      f0      :     0.007519  f :     0.073657
      f+1     :     0.009409
      f-1     :     0.007583
      f+2     :     0.012533
      f-2     :     0.011413
      f+3     :     0.014789
      f-3     :     0.010411
  2 C s       :     2.825182  s :     2.825182
      pz      :     1.058925  p :     3.125494
      px      :     1.020737
      py      :     1.045832
      dz2     :     0.052818  d :     0.292757
      dxz     :     0.083111
      dyz     :     0.020335
      dx2y2   :     0.090230
      dxy     :     0.046262
      f0      :     0.002973  f :     0.029696
      f+1     :     0.004219
      f-1     :     0.003741
      f+2     :     0.003151
      f-2     :     0.004674
      f+3     :     0.005515
      f-3     :     0.005422
  3 C s       :     2.806218  s :     2.806218
      pz      :     0.866844  p :     2.821566
      px      :     0.928310
      py      :     1.026411
      dz2     :     0.090444  d :     0.523874
      dxz     :     0.139055
      dyz     :     0.155061
      dx2y2   :     0.067713
      dxy     :     0.071601
      f0      :     0.015903  f :     0.077227
      f+1     :     0.020428
      f-1     :     0.008570
      f+2     :     0.010900
      f-2     :     0.010945
      f+3     :     0.006560
      f-3     :     0.003922
  4 O s       :     3.331540  s :     3.331540
      pz      :     1.243738  p :     4.390189
      px      :     1.467128
      py      :     1.679323
      dz2     :     0.026353  d :     0.120867
      dxz     :     0.038963
      dyz     :     0.019863
      dx2y2   :     0.018571
      dxy     :     0.017117
      f0      :     0.001482  f :     0.009601
      f+1     :     0.002131
      f-1     :     0.000977
      f+2     :     0.001812
      f-2     :     0.001458
      f+3     :     0.000839
      f-3     :     0.000903
  5 C s       :     2.740816  s :     2.740816
      pz      :     0.926744  p :     2.750054
      px      :     0.831299
      py      :     0.992010
      dz2     :     0.149736  d :     0.653300
      dxz     :     0.150173
      dyz     :     0.131699
      dx2y2   :     0.103417
      dxy     :     0.118275
      f0      :     0.016365  f :     0.091211
      f+1     :     0.017357
      f-1     :     0.008203
      f+2     :     0.016073
      f-2     :     0.013444
      f+3     :     0.011068
      f-3     :     0.008702
  6 C s       :     2.805525  s :     2.805525
      pz      :     1.037512  p :     2.878995
      px      :     0.878434
      py      :     0.963049
      dz2     :     0.104946  d :     0.344663
      dxz     :     0.072081
      dyz     :     0.085066
      dx2y2   :     0.043640
      dxy     :     0.038930
      f0      :     0.010023  f :     0.053433
      f+1     :     0.005617
      f-1     :     0.015548
      f+2     :     0.009597
      f-2     :     0.008454
      f+3     :     0.002141
      f-3     :     0.002054
  7 C s       :     2.888658  s :     2.888658
      pz      :     1.058595  p :     2.983269
      px      :     0.920080
      py      :     1.004594
      dz2     :     0.045109  d :     0.165216
      dxz     :     0.029543
      dyz     :     0.053971
      dx2y2   :     0.018980
      dxy     :     0.017613
      f0      :     0.007682  f :     0.042324
      f+1     :     0.004298
      f-1     :     0.012912
      f+2     :     0.007596
      f-2     :     0.006646
      f+3     :     0.001588
      f-3     :     0.001601
  8 H s       :     0.798387  s :     0.798387
      pz      :     0.015474  p :     0.066664
      px      :     0.032855
      py      :     0.018334
  9 H s       :     0.806479  s :     0.806479
      pz      :     0.033566  p :     0.065848
      px      :     0.016244
      py      :     0.016038
 10 H s       :     0.803634  s :     0.803634
      pz      :     0.025107  p :     0.066222
      px      :     0.025590
      py      :     0.015524
 11 H s       :     0.805316  s :     0.805316
      pz      :     0.033701  p :     0.065913
      px      :     0.016336
      py      :     0.015876
 12 H s       :     0.807452  s :     0.807452
      pz      :     0.014069  p :     0.065883
      px      :     0.013811
      py      :     0.038003
 13 H s       :     0.804166  s :     0.804166
      pz      :     0.024717  p :     0.065973
      px      :     0.026054
      py      :     0.015203
 14 H s       :     0.817256  s :     0.817256
      pz      :     0.020020  p :     0.063926
      px      :     0.012956
      py      :     0.030950
 15 H s       :     0.815615  s :     0.815615
      pz      :     0.018598  p :     0.064016
      px      :     0.018575
      py      :     0.026842
 16 H s       :     0.783259  s :     0.783259
      pz      :     0.014589  p :     0.061782
      px      :     0.015030
      py      :     0.032162
 17 H s       :     0.797723  s :     0.797723
      pz      :     0.034521  p :     0.074070
      px      :     0.014843
      py      :     0.024707


                      *****************************
                      * MAYER POPULATION ANALYSIS *
                      *****************************

  NA   - Mulliken gross atomic population
  ZA   - Total nuclear charge
  QA   - Mulliken gross atomic charge
  VA   - Mayer's total valence
  BVA  - Mayer's bonded valence
  FA   - Mayer's free valence

  ATOM       NA         ZA         QA         VA         BVA        FA
  0 C      6.4301     6.0000    -0.4301     4.0115     3.7077     0.3038
  1 C      5.8913     6.0000     0.1087     4.0158     3.6693     0.3465
  2 C      6.4207     6.0000    -0.4207     3.9771     3.6753     0.3018
  3 C      6.0446     6.0000    -0.0446     4.0516     3.7426     0.3089
  4 O      8.3073     8.0000    -0.3073     2.3093     1.8792     0.4301
  5 C      6.0870     6.0000    -0.0870     4.2002     3.8765     0.3237
  6 C      6.0437     6.0000    -0.0437     4.1550     3.7343     0.4207
  7 C      6.0942     6.0000    -0.0942     3.7700     3.3527     0.4173
  8 H      0.8459     1.0000     0.1541     0.9693     0.9209     0.0484
  9 H      0.8656     1.0000     0.1344     0.9739     0.9244     0.0494
 10 H      0.8654     1.0000     0.1346     0.9814     0.9321     0.0493
 11 H      0.8651     1.0000     0.1349     0.9771     0.9279     0.0493
 12 H      0.8631     1.0000     0.1369     0.9733     0.9242     0.0492
 13 H      0.8624     1.0000     0.1376     0.9771     0.9280     0.0491
 14 H      0.9085     1.0000     0.0915     0.9587     0.9073     0.0515
 15 H      0.8985     1.0000     0.1015     0.9579     0.9073     0.0506
 16 H      0.9001     1.0000     0.0999     0.9518     0.8995     0.0523
 17 H      0.8064     1.0000     0.1936     0.9722     0.9315     0.0407

  Mayer bond orders larger than 0.1
B(  0-C ,  1-C ) :   0.9241 B(  0-C ,  8-H ) :   0.9322 B(  0-C ,  9-H ) :   0.9331 
B(  0-C , 10-H ) :   0.9297 B(  1-C ,  2-C ) :   0.9198 B(  1-C ,  3-C ) :   0.9513 
B(  1-C ,  5-C ) :   0.9211 B(  2-C , 11-H ) :   0.9325 B(  2-C , 12-H ) :   0.9324 
B(  2-C , 13-H ) :   0.9331 B(  3-C ,  4-O ) :   0.9495 B(  3-C , 14-H ) :   0.9051 
B(  3-C , 15-H ) :   0.9081 B(  4-O ,  5-C ) :   1.0139 B(  5-C ,  6-C ) :   1.1601 
B(  5-C ,  7-C ) :  -0.1208 B(  5-C , 16-H ) :   0.9017 B(  6-C ,  7-C ) :   2.5575 
B(  7-C , 17-H ) :   0.8915 


-------
TIMINGS
-------

Total time                :  738.617 sec
Integral trafo            :    4.836 sec (  0.7%)
FC preparation            :    2.201 sec (  0.3%)
I/O of integrals          :    0.040 sec (  0.0%)
K(i,j) Operators          :    5.505 sec (  0.7%)
T(i,j) pair energies      :    0.541 sec (  0.1%)
V-calculation             :    0.016 sec (  0.0%)
V**(-1/2)                 :    0.093 sec (  0.0%)
Gamma(ia|P)               :    5.388 sec (  0.7%)
Gamma-Trafo               :    0.970 sec (  0.1%)
D(virtual)                :    2.059 sec (  0.3%)
D(internal)               :    1.844 sec (  0.2%)
W(virtual)                :    0.000 sec (  0.0%)
W(internal)               :    0.000 sec (  0.0%)
L(virtual)                :    7.834 sec (  1.1%)
L(internal)               :    0.125 sec (  0.0%)
G(D)                      :   86.902 sec ( 11.8%)
G(Z)                      :    0.000 sec (  0.0%)
Z-Vector Solution         :  619.722 sec ( 83.9%)
3-Index Derivative        :    0.000 sec (  0.0%)
2-Index Derivative        :    0.000 sec (  0.0%)
Separable Gradient (RIJ)  :    0.000 sec (  0.0%)
Separable Gradient (X)    :    0.000 sec (  0.0%)


---------------------------------------
MP2 TOTAL ENERGY:     -347.139997391 Eh
---------------------------------------

-------------------------   --------------------
FINAL SINGLE POINT ENERGY      -347.139997391004
-------------------------   --------------------


                            ***************************************
                            *     ORCA property calculations      *
                            ***************************************

                                    ---------------------
                                    Active property flags
                                    ---------------------
   (+) Dipole Moment


------------------------------------------------------------------------------
                       ORCA ELECTRIC PROPERTIES CALCULATION
------------------------------------------------------------------------------

Dipole Moment Calculation                       ... on
Quadrupole Moment Calculation                   ... off
Polarizability Calculation                      ... off
GBWName                                         ... dsgdb9nsd_006812.gbw
Electron density file                           ... dsgdb9nsd_006812.scfp.tmp

-------------
DIPOLE MOMENT
-------------
                                X             Y             Z
Electronic contribution:      5.36197      -1.56757       4.87540
Nuclear contribution   :     -6.19259       1.82204      -5.22098
                        -----------------------------------------
Total Dipole Moment    :     -0.83062       0.25447      -0.34559
                        -----------------------------------------
Magnitude (a.u.)       :      0.93494
Magnitude (Debye)      :      2.37642


                         *** MP2 UNRELAXED DENSITY ***

------------------------------------------------------------------------------
                       ORCA ELECTRIC PROPERTIES CALCULATION
------------------------------------------------------------------------------

Dipole Moment Calculation                       ... on
Quadrupole Moment Calculation                   ... off
Polarizability Calculation                      ... off
GBWName                                         ... dsgdb9nsd_006812.gbw
Electron density file                           ... dsgdb9nsd_006812.pmp2ur

-------------
DIPOLE MOMENT
-------------
                                X             Y             Z
Electronic contribution:      5.38760      -1.57291       4.88256
Nuclear contribution   :     -6.19259       1.82204      -5.22098
                        -----------------------------------------
Total Dipole Moment    :     -0.80499       0.24913      -0.33842
                        -----------------------------------------
Magnitude (a.u.)       :      0.90808
Magnitude (Debye)      :      2.30816


                           *** MP2 RELAXED DENSITY ***

------------------------------------------------------------------------------
                       ORCA ELECTRIC PROPERTIES CALCULATION
------------------------------------------------------------------------------

Dipole Moment Calculation                       ... on
Quadrupole Moment Calculation                   ... off
Polarizability Calculation                      ... off
GBWName                                         ... dsgdb9nsd_006812.gbw
Electron density file                           ... dsgdb9nsd_006812.pmp2re

-------------
DIPOLE MOMENT
-------------
                                X             Y             Z
Electronic contribution:      5.43726      -1.56465       4.94125
Nuclear contribution   :     -6.19259       1.82204      -5.22098
                        -----------------------------------------
Total Dipole Moment    :     -0.75533       0.25740      -0.27973
                        -----------------------------------------
Magnitude (a.u.)       :      0.84559
Magnitude (Debye)      :      2.14933


Timings for individual modules:

Sum of individual times         ...      855.156 sec (=  14.253 min)
GTO integral calculation        ...        0.455 sec (=   0.008 min)   0.1 %
SCF iterations                  ...      115.944 sec (=   1.932 min)  13.6 %
MP2 module                      ...      738.757 sec (=  12.313 min)  86.4 %
                             ****ORCA TERMINATED NORMALLY****
TOTAL RUN TIME: 0 days 0 hours 14 minutes 15 seconds 631 msec
