
                                 *****************
                                 * O   R   C   A *
                                 *****************

           --- An Ab Initio, DFT and Semiempirical electronic structure package ---

                  #######################################################
                  #                        -***-                        #
                  #  Department of molecular theory and spectroscopy    #
                  #              Directorship: Frank Neese              #
                  # Max Planck Institute for Chemical Energy Conversion #
                  #                  D-45470 Muelheim/Ruhr              #
                  #                       Germany                       #
                  #                                                     #
                  #                  All rights reserved                #
                  #                        -***-                        #
                  #######################################################


                         Program Version 3.0.3 - RELEASE   -


 With contributions from (in alphabetic order):
   Ute Becker             : Parallelization
   Dmytro Bykov           : SCF Hessian
   Dmitry Ganyushin       : Spin-Orbit,Spin-Spin,Magnetic field MRCI
   Andreas Hansen         : Spin unrestricted coupled pair/coupled cluster methods
   Dimitrios Liakos       : Extrapolation schemes; parallel MDCI
   Robert Izsak           : Overlap fitted RIJCOSX, COSX-SCS-MP3
   Christian Kollmar      : KDIIS, OOCD, Brueckner-CCSD(T), CCSD density
   Simone Kossmann        : Meta GGA functionals, TD-DFT gradient, OOMP2, MP2 Hessian
   Taras Petrenko         : DFT Hessian,TD-DFT gradient, ASA and ECA modules, normal mode analysis, Resonance Raman, ABS, FL, XAS/XES, NRVS
   Christoph Reimann      : Effective Core Potentials
   Michael Roemelt        : Restricted open shell CIS
   Christoph Riplinger    : Improved optimizer, TS searches, QM/MM, DLPNO-CCSD
   Barbara Sandhoefer     : DKH picture change effects
   Igor Schapiro          : Molecular dynamics
   Kantharuban Sivalingam : CASSCF convergence, NEVPT2
   Boris Wezisla          : Elementary symmetry handling
   Frank Wennmohs         : Technical directorship


 We gratefully acknowledge several colleagues who have allowed us to
 interface, adapt or use parts of their codes:
   Stefan Grimme, W. Hujo, H. Kruse, T. Risthaus : VdW corrections, initial TS optimization,
                                                   DFT functionals, gCP
   Ed Valeev                                     : LibInt (2-el integral package), F12 methods
   Garnet Chan, S. Sharma, R. Olivares           : DMRG
   Ulf Ekstrom                                   : XCFun DFT Library
   Mihaly Kallay                                 : mrcc  (arbitrary order and MRCC methods)
   Andreas Klamt, Michael Diedenhofen            : otool_cosmo (COSMO solvation model)
   Frank Weinhold                                : gennbo (NPA and NBO analysis)
   Christopher J. Cramer and Donald G. Truhlar   : smd solvation model


 Your calculation uses the libint2 library for the computation of 2-el integrals
 For citations please refer to: http://libint.valeyev.net

 This ORCA versions uses:
   CBLAS   interface :  Fast vector & matrix operations
   LAPACKE interface :  Fast linear algebra routines
   SCALAPACK package :  Parallel linear algebra routines


Your calculation utilizes the basis: Ahlrichs-TZV
Cite in your paper:
H - Kr: A. Schaefer, H. Horn and R. Ahlrichs, J. Chem. Phys. 97, 2571 (1992).

The def2-TZV basis will be loaded
Cite in your paper:
 	F. Weigend, R. Ahlrichs, Phys. Chem. Chem. Phys. 2005, 7, 3297.

================================================================================
                                        WARNINGS
                       Please study these warnings very carefully!
================================================================================
Now building the actual basis set


INFO   : the flag for use of LIBINT has been found!

================================================================================
                                       INPUT FILE
================================================================================
NAME = dsgdb9nsd_030419.inp
|  1> ! RI-MP2 RIJK def2-TZVP def2-TZVP/C def2-TZVP/JK TIGHTSCF
|  2> % maxcore 2000
|  3> % mp2 density relaxed end
|  4> *xyz 0 1
|  5>  C       -0.1208634250     1.4471374159     0.0550884128 
|  6>  N       -0.2505245993     0.0117491747     0.2146249518 
|  7>  C        0.5518196933    -0.6570150898     0.9140135554 
|  8>  O        1.6300211732    -0.0374635520     1.5857335908 
|  9>  C        2.5393048924    -0.6716904538     2.3566711769 
| 10>  O        3.4247277351    -0.0932930265     2.8958442549 
| 11>  O        2.4035688388    -2.0262154719     2.4979809660 
| 12>  C        1.3842970982    -2.6907989222     1.8765808731 
| 13>  C        0.4763650442    -2.0883548094     1.1121037571 
| 14>  H        0.7239229991     1.8929529290     0.5881325388 
| 15>  H       -0.0284961161     1.6715404095    -1.0133780524 
| 16>  H       -1.0486655172     1.9202682084     0.3954513464 
| 17>  H        1.4245414066    -3.7498325690     2.0928109321 
| 18>  H       -0.3207830533    -2.6345509028     0.6308040363 
| 19> *
| 20> 
| 21>                          ****END OF INPUT****
================================================================================

                       ****************************
                       * Single Point Calculation *
                       ****************************

---------------------------------
CARTESIAN COORDINATES (ANGSTROEM)
---------------------------------
  C     -0.120863    1.447137    0.055088
  N     -0.250525    0.011749    0.214625
  C      0.551820   -0.657015    0.914014
  O      1.630021   -0.037464    1.585734
  C      2.539305   -0.671690    2.356671
  O      3.424728   -0.093293    2.895844
  O      2.403569   -2.026215    2.497981
  C      1.384297   -2.690799    1.876581
  C      0.476365   -2.088355    1.112104
  H      0.723923    1.892953    0.588133
  H     -0.028496    1.671540   -1.013378
  H     -1.048666    1.920268    0.395451
  H      1.424541   -3.749833    2.092811
  H     -0.320783   -2.634551    0.630804

----------------------------
CARTESIAN COORDINATES (A.U.)
----------------------------
  NO LB      ZA    FRAG    MASS        X           Y           Z
   0 C     6.0000    0    12.011         -0.228398772857731          2.734693394201497          0.104102013344402
   1 N     7.0000    0    14.007         -0.473422882487360          0.022202722482596          0.405582380408049
   2 C     6.0000    0    12.011          1.042788095641420         -1.241578585575678          1.727235302397660
   3 O     8.0000    0    15.999          3.080293609841019         -0.070795853283918          2.996602207971548
   4 C     6.0000    0    12.011          4.798590817162372         -1.269311004451285          4.453463112046883
   5 O     8.0000    0    15.999          6.471797502583407         -0.176298270289658          5.472352568250245
   6 O     8.0000    0    15.999          4.542086849359117         -3.828992330205012          4.720499913488053
   7 C     6.0000    0    12.011          2.615942403579893         -5.084873044408477          3.546223918313830
   8 C     6.0000    0    12.011          0.900199473311292         -3.946418660223315          2.101571533423882
   9 H     1.0000    0     1.008          1.368016210345921          3.577162620214080          1.111409428779815
  10 H     1.0000    0     1.008         -0.053849855309424          3.158753595737581         -1.915006989162500
  11 H     1.0000    0     1.008         -1.981690633594886          3.628781017551620          0.747294743986426
  12 H     1.0000    0     1.008          2.691993124904960         -7.086156603468365          3.954839511745464
  13 H     1.0000    0     1.008         -0.606192119140064         -4.978579692166988          1.192046872779120

--------------------------------
INTERNAL COORDINATES (ANGSTROEM)
--------------------------------
 C      0   0   0   0.000000     0.000     0.000
 N      1   0   0   1.450036     0.000     0.000
 C      2   1   0   1.257039   122.058     0.000
 O      3   2   1   1.413354   121.208     0.000
 C      4   3   2   1.350328   125.391   179.993
 O      5   4   3   1.187108   122.189   179.994
 O      5   4   3   1.368624   117.194     0.000
 C      7   5   4   1.366281   120.560     0.000
 C      8   7   5   1.331054   123.362     0.000
 H      1   2   3   1.093870   114.764     0.000
 H      1   2   3   1.095677   108.516   122.277
 H      1   2   3   1.095681   108.515   237.750
 H      8   7   5   1.081632   110.951   179.983
 H      9   8   7   1.079548   122.056   180.001

---------------------------
INTERNAL COORDINATES (A.U.)
---------------------------
 C      0   0   0   0.000000     0.000     0.000
 N      1   0   0   2.740170     0.000     0.000
 C      2   1   0   2.375459   122.058     0.000
 O      3   2   1   2.670853   121.208     0.000
 C      4   3   2   2.551750   125.391   179.993
 O      5   4   3   2.243309   122.189   179.994
 O      5   4   3   2.586324   117.194     0.000
 C      7   5   4   2.581897   120.560     0.000
 C      8   7   5   2.515328   123.362     0.000
 H      1   2   3   2.067115   114.764     0.000
 H      1   2   3   2.070530   108.516   122.277
 H      1   2   3   2.070537   108.515   237.750
 H      8   7   5   2.043988   110.951   179.983
 H      9   8   7   2.040051   122.056   180.001

---------------------
BASIS SET INFORMATION
---------------------
There are 4 groups of distinct atoms

 Group   1 Type C   : 11s6p2d1f contracted to 5s3p2d1f pattern {62111/411/11/1}
 Group   2 Type N   : 11s6p2d1f contracted to 5s3p2d1f pattern {62111/411/11/1}
 Group   3 Type O   : 11s6p2d1f contracted to 5s3p2d1f pattern {62111/411/11/1}
 Group   4 Type H   : 5s1p contracted to 3s1p pattern {311/1}

Atom   0C    basis set group =>   1
Atom   1N    basis set group =>   2
Atom   2C    basis set group =>   1
Atom   3O    basis set group =>   3
Atom   4C    basis set group =>   1
Atom   5O    basis set group =>   3
Atom   6O    basis set group =>   3
Atom   7C    basis set group =>   1
Atom   8C    basis set group =>   1
Atom   9H    basis set group =>   4
Atom  10H    basis set group =>   4
Atom  11H    basis set group =>   4
Atom  12H    basis set group =>   4
Atom  13H    basis set group =>   4
-------------------------------
AUXILIARY BASIS SET INFORMATION
-------------------------------
There are 4 groups of distinct atoms

 Group   1 Type C   : 14s10p6d2f1g contracted to 10s8p5d1f1g pattern {5111111111/31111111/21111/2/1}
 Group   2 Type N   : 14s10p6d2f1g contracted to 10s8p4d2f1g pattern {5111111111/31111111/3111/11/1}
 Group   3 Type O   : 14s10p6d2f1g contracted to 10s8p4d2f1g pattern {5111111111/31111111/3111/11/1}
 Group   4 Type H   : 4s2p2d contracted to 2s2p2d pattern {31/11/11}

Atom   0C    basis set group =>   1
Atom   1N    basis set group =>   2
Atom   2C    basis set group =>   1
Atom   3O    basis set group =>   3
Atom   4C    basis set group =>   1
Atom   5O    basis set group =>   3
Atom   6O    basis set group =>   3
Atom   7C    basis set group =>   1
Atom   8C    basis set group =>   1
Atom   9H    basis set group =>   4
Atom  10H    basis set group =>   4
Atom  11H    basis set group =>   4
Atom  12H    basis set group =>   4
Atom  13H    basis set group =>   4
------------------------------------------------------------------------------
                           ORCA GTO INTEGRAL CALCULATION
                           -- RI-GTO INTEGRALS CHOSEN --
------------------------------------------------------------------------------

                         BASIS SET STATISTICS AND STARTUP INFO

Gaussian basis set:
 # of primitive gaussian shells          ...  210
 # of primitive gaussian functions       ...  454
 # of contracted shells                  ...  119
 # of contracted basis functions         ...  309
 Highest angular momentum                ...    3
 Maximum contraction depth               ...    6
Auxiliary gaussian basis set:
 # of primitive gaussian shells          ...  337
 # of primitive gaussian functions       ...  973
 # of contracted shells                  ...  255
 # of contracted aux-basis functions     ...  773
 Highest angular momentum                ...    4
 Maximum contraction depth               ...    5
Ratio of auxiliary to basis functions    ...  2.50
Integral package used                  ... LIBINT
 One Electron integrals                  ... done
 Ordering auxiliary basis shells         ... done
 Integral threshhold             Thresh  ...  2.500e-11
 Primitive cut-off               TCut    ...  2.500e-12
 Pre-screening matrix                    ... done
 Shell pair data                         ... 
 Ordering of the shell pairs             ... done (   0.001 sec) 6386 of 7140 pairs
 Determination of significant pairs      ... done (   0.000 sec)
 Creation of shell pair data             ... done (   0.001 sec)
 Storage of shell pair data              ... done (   0.001 sec)
 Shell pair data done in (   0.004 sec)
 Computing two index integrals           ... done
 Cholesky decomposition of the V-matrix  ... done


Timings:
 Total evaluation time                   ...   0.344 sec (  0.006 min)
 One electron matrix time                ...   0.062 sec (  0.001 min) = 17.9%
 Schwartz matrix evaluation time         ...   0.206 sec (  0.003 min) = 59.9%
 Two index repulsion integral time       ...   0.018 sec (  0.000 min) =  5.2%
 Cholesky decomposition of V             ...   0.026 sec (  0.000 min) =  7.6%
 Three index repulsion integral time     ...   0.000 sec (  0.000 min) =  0.0%

-------------------------------------------------------------------------------
                                 ORCA SCF
-------------------------------------------------------------------------------

------------
SCF SETTINGS
------------
Hamiltonian:
 Ab initio Hamiltonian  Method          .... Hartree-Fock(GTOs)
 RI-approximation to the Coulomb term is turned on
   Number of auxiliary basis functions  .... 773
   RI-JK (J+K treated both via RI)      .... on


General Settings:
 Integral files         IntName         .... dsgdb9nsd_030419
 Hartree-Fock type      HFTyp           .... RHF
 Total Charge           Charge          ....    0
 Multiplicity           Mult            ....    1
 Number of Electrons    NEL             ....   66
 Basis Dimension        Dim             ....  309
 Nuclear Repulsion      ENuc            ....    440.4025278886 Eh

Convergence Acceleration:
 DIIS                   CNVDIIS         .... on
   Start iteration      DIISMaxIt       ....    12
   Startup error        DIISStart       ....  0.200000
   # of expansion vecs  DIISMaxEq       ....     5
   Bias factor          DIISBfac        ....   1.050
   Max. coefficient     DIISMaxC        ....  10.000
 Newton-Raphson         CNVNR           .... off
 SOSCF                  CNVSOSCF        .... on
   Start iteration      SOSCFMaxIt      ....   150
   Startup grad/error   SOSCFStart      ....  0.003300
 Level Shifting         CNVShift        .... on
   Level shift para.    LevelShift      ....    0.2500
   Turn off err/grad.   ShiftErr        ....    0.0010
 Zerner damping         CNVZerner       .... off
 Static damping         CNVDamp         .... on
   Fraction old density DampFac         ....    0.7000
   Max. Damping (<1)    DampMax         ....    0.9800
   Min. Damping (>=0)   DampMin         ....    0.0000
   Turn off err/grad.   DampErr         ....    0.1000
 Fernandez-Rico         CNVRico         .... off

SCF Procedure:
 Maximum # iterations   MaxIter         ....   125
 SCF integral mode      SCFMode         .... Direct
   Integral package                     .... LIBINT
 Reset frequeny         DirectResetFreq ....    20
 Integral Threshold     Thresh          ....  2.500e-11 Eh
 Primitive CutOff       TCut            ....  2.500e-12 Eh

Convergence Tolerance:
 Convergence Check Mode ConvCheckMode   .... Total+1el-Energy
 Energy Change          TolE            ....  1.000e-08 Eh
 1-El. energy change                    ....  1.000e-05 Eh
 Orbital Gradient       TolG            ....  1.000e-05
 Orbital Rotation angle TolX            ....  1.000e-05
 DIIS Error             TolErr          ....  5.000e-07


Diagonalization of the overlap matrix:
Smallest eigenvalue                        ... 7.849e-05
Time for diagonalization                   ...    0.028 sec
Threshold for overlap eigenvalues          ... 1.000e-08
Number of eigenvalues below threshold      ... 0
Time for construction of square roots      ...    0.014 sec
Total time needed                          ...    0.042 sec

-------------------
DFT GRID GENERATION
-------------------

General Integration Accuracy     IntAcc      ...  4.340
Radial Grid Type                 RadialGrid  ... Gauss-Chebyshev
Angular Grid (max. acc.)         AngularGrid ... Lebedev-110
Angular grid pruning method      GridPruning ... 3 (G Style)
Weight generation scheme         WeightScheme... Becke
Basis function cutoff            BFCut       ...    1.0000e-11
Integration weight cutoff        WCut        ...    1.0000e-14
Grids for H and He will be reduced by one unit

# of grid points (after initial pruning)     ...  19100 (   0.0 sec)
# of grid points (after weights+screening)   ...  17943 (   0.1 sec)
nearest neighbour list constructed           ...    0.0 sec
Grid point re-assignment to atoms done       ...    0.0 sec
Grid point division into batches done        ...    0.0 sec
Reduced shell lists constructed in    1.0 sec

Total number of grid points                  ...    17943
Total number of batches                      ...      289
Average number of points per batch           ...       62
Average number of grid points per atom       ...     1282
Average number of shells per batch           ...    76.81 (64.54%)
Average number of basis functions per batch  ...   204.69 (66.24%)
Average number of large shells per batch     ...    60.13 (78.28%)
Average number of large basis fcns per batch ...   158.65 (77.51%)
Average number of aux-shells per batch       ...    76.81 (30.12%)
Average number of aux functions per batch    ...   204.69 (  inf%)
Maximum spatial batch extension              ...  25.60, 19.53, 19.15 au
Average spatial batch extension              ...   4.11,  3.74,  4.15 au

Time for grid setup =    1.073 sec

------------------------------
INITIAL GUESS: MODEL POTENTIAL
------------------------------
Loading Hartree-Fock densities                     ... done
Calculating cut-offs                               ... done
Setting up the integral package                    ... done
Initializing the effective Hamiltonian             ... done
Starting the Coulomb interaction                   ... done (   0.5 sec)
Reading the grid                                   ... done
Mapping shells                                     ... done
Starting the XC term evaluation                    ... done (   0.5 sec)
Transforming the Hamiltonian                       ... done (   0.0 sec)
Diagonalizing the Hamiltonian                      ... done (   0.0 sec)
Back transforming the eigenvectors                 ... done (   0.0 sec)
Now organizing SCF variables                       ... done
                      ------------------
                      INITIAL GUESS DONE (   2.2 sec)
                      ------------------
--------------
SCF ITERATIONS
--------------
ITER       Energy         Delta-E        Max-DP      RMS-DP      [F,P]     Damp
  0   -471.0501733358   0.000000000000 0.04375846  0.00081059  0.3025249 0.7000
  1   -470.9192344921   0.130938843669 0.04340603  0.00085739  0.2694600 0.7000
                               ***Turning on DIIS***
  2   -470.9673329769  -0.048098484758 0.02766749  0.00060639  0.1906611 0.7000
  3   -471.5382770660  -0.570944089094 0.01252281  0.00032089  0.1364376 0.7000
  4   -471.2576263934   0.280650672524 0.02543743  0.00079432  0.0869171 0.0000
  5   -471.3429485863  -0.085322192891 0.01240083  0.00025100  0.0264953 0.0000
  6   -471.3684639371  -0.025515350773 0.00547338  0.00010527  0.0160062 0.0000
  7   -471.3888533331  -0.020389395981 0.00255407  0.00006670  0.0084758 0.0000
  8   -471.4133237825  -0.024470449457 0.00233744  0.00005478  0.0061889 0.0000
                      *** Initiating the SOSCF procedure ***
                           *** Shutting down DIIS ***
                      *** Re-Reading the Fockian *** 
                      *** Removing any level shift *** 
ITER      Energy       Delta-E        Grad      Rot      Max-DP    RMS-DP
  9   -471.44960828  -0.0362844950  0.001516  0.001516  0.000510  0.000016
 10   -471.45502440  -0.0054161272  0.000760  0.001662  0.000303  0.000011
 11   -471.45503110  -0.0000066933  0.000311  0.002014  0.000479  0.000016
 12   -471.45503423  -0.0000031309  0.000080  0.000144  0.000105  0.000003
 13   -471.45503452  -0.0000002941  0.000036  0.000051  0.000026  0.000001
 14   -471.45503454  -0.0000000207  0.000007  0.000011  0.000010  0.000000
 15   -471.45503455  -0.0000000033  0.000003  0.000011  0.000004  0.000000
                  ***Gradient check signals convergence***
              ***Rediagonalizing the Fockian in SOSCF/NRSCF***

               *****************************************************
               *                     SUCCESS                       *
               *           SCF CONVERGED AFTER  16 CYCLES          *
               *****************************************************


----------------
TOTAL SCF ENERGY
----------------

Total Energy       :         -471.45503455 Eh          -12828.94370 eV

Components:
Nuclear Repulsion  :          440.40252789 Eh           11983.96204 eV
Electronic Energy  :         -911.85756244 Eh          -24812.90574 eV

One Electron Energy:        -1517.09143604 Eh          -41282.15672 eV
Two Electron Energy:          605.23387361 Eh           16469.25098 eV

Virial components:
Potential Energy   :         -942.19571772 Eh          -25638.44891 eV
Kinetic Energy     :          470.74068317 Eh           12809.50521 eV
Virial Ratio       :            2.00151751


---------------
SCF CONVERGENCE
---------------

  Last Energy change         ...   -3.5766e-10  Tolerance :   1.0000e-08
  Last MAX-Density change    ...    1.8132e-06  Tolerance :   1.0000e-07
  Last RMS-Density change    ...    4.3163e-08  Tolerance :   5.0000e-09
  Last Orbital Gradient      ...    1.1486e-06  Tolerance :   1.0000e-05
  Last Orbital Rotation      ...    3.0687e-06  Tolerance :   1.0000e-05

             **** THE GBW FILE WAS UPDATED (dsgdb9nsd_030419.gbw) ****
             **** DENSITY FILE WAS UPDATED (dsgdb9nsd_030419.scfp.tmp) ****
             **** ENERGY FILE WAS UPDATED (dsgdb9nsd_030419.en.tmp) ****
----------------
ORBITAL ENERGIES
----------------

  NO   OCC          E(Eh)            E(eV) 
   0   2.0000     -20.659420      -562.1714 
   1   2.0000     -20.650001      -561.9151 
   2   2.0000     -20.565191      -559.6073 
   3   2.0000     -15.572618      -423.7525 
   4   2.0000     -11.465453      -311.9908 
   5   2.0000     -11.372846      -309.4709 
   6   2.0000     -11.352192      -308.9088 
   7   2.0000     -11.269773      -306.6661 
   8   2.0000     -11.257063      -306.3203 
   9   2.0000      -1.545140       -42.0454 
  10   2.0000      -1.449599       -39.4456 
  11   2.0000      -1.407909       -38.3111 
  12   2.0000      -1.250150       -34.0183 
  13   2.0000      -1.107939       -30.1486 
  14   2.0000      -0.984610       -26.7926 
  15   2.0000      -0.939777       -25.5726 
  16   2.0000      -0.890994       -24.2452 
  17   2.0000      -0.787226       -21.4215 
  18   2.0000      -0.756872       -20.5955 
  19   2.0000      -0.726155       -19.7597 
  20   2.0000      -0.695771       -18.9329 
  21   2.0000      -0.675789       -18.3892 
  22   2.0000      -0.665527       -18.1099 
  23   2.0000      -0.628521       -17.1029 
  24   2.0000      -0.603247       -16.4152 
  25   2.0000      -0.591589       -16.0980 
  26   2.0000      -0.578792       -15.7497 
  27   2.0000      -0.553307       -15.0563 
  28   2.0000      -0.539458       -14.6794 
  29   2.0000      -0.505942       -13.7674 
  30   2.0000      -0.453823       -12.3492 
  31   2.0000      -0.437557       -11.9065 
  32   2.0000      -0.371610       -10.1120 
  33   0.0000       0.085649         2.3306 
  34   0.0000       0.138115         3.7583 
  35   0.0000       0.153638         4.1807 
  36   0.0000       0.168993         4.5985 
  37   0.0000       0.178450         4.8559 
  38   0.0000       0.181399         4.9361 
  39   0.0000       0.214558         5.8384 
  40   0.0000       0.222544         6.0557 
  41   0.0000       0.234560         6.3827 
  42   0.0000       0.235266         6.4019 
  43   0.0000       0.257900         7.0178 
  44   0.0000       0.267772         7.2865 
  45   0.0000       0.290261         7.8984 
  46   0.0000       0.302076         8.2199 
  47   0.0000       0.319148         8.6845 
  48   0.0000       0.325234         8.8501 
  49   0.0000       0.332604         9.0506 
  50   0.0000       0.350085         9.5263 
  51   0.0000       0.360466         9.8088 
  52   0.0000       0.373923        10.1750 
  53   0.0000       0.399628        10.8744 
  54   0.0000       0.416541        11.3347 
  55   0.0000       0.419401        11.4125 
  56   0.0000       0.432301        11.7635 
  57   0.0000       0.464729        12.6459 
  58   0.0000       0.470761        12.8101 
  59   0.0000       0.483645        13.1606 
  60   0.0000       0.490785        13.3549 
  61   0.0000       0.523642        14.2490 
  62   0.0000       0.546227        14.8636 
  63   0.0000       0.559345        15.2205 
  64   0.0000       0.579781        15.7766 
  65   0.0000       0.590009        16.0550 
  66   0.0000       0.599972        16.3261 
  67   0.0000       0.602339        16.3905 
  68   0.0000       0.625951        17.0330 
  69   0.0000       0.636425        17.3180 
  70   0.0000       0.637840        17.3565 
  71   0.0000       0.652853        17.7650 
  72   0.0000       0.671384        18.2693 
  73   0.0000       0.679400        18.4874 
  74   0.0000       0.710302        19.3283 
  75   0.0000       0.712637        19.3918 
  76   0.0000       0.719082        19.5672 
  77   0.0000       0.729698        19.8561 
  78   0.0000       0.761037        20.7089 
  79   0.0000       0.771061        20.9816 
  80   0.0000       0.777429        21.1549 
  81   0.0000       0.800638        21.7865 
  82   0.0000       0.809355        22.0237 
  83   0.0000       0.811537        22.0830 
  84   0.0000       0.814185        22.1551 
  85   0.0000       0.840711        22.8769 
  86   0.0000       0.850481        23.1428 
  87   0.0000       0.881770        23.9942 
  88   0.0000       0.906457        24.6659 
  89   0.0000       0.933797        25.4099 
  90   0.0000       0.943275        25.6678 
  91   0.0000       0.985314        26.8118 
  92   0.0000       0.999500        27.1978 
  93   0.0000       1.023535        27.8518 
  94   0.0000       1.024278        27.8720 
  95   0.0000       1.041172        28.3317 
  96   0.0000       1.062269        28.9058 
  97   0.0000       1.105201        30.0741 
  98   0.0000       1.114338        30.3227 
  99   0.0000       1.127952        30.6931 
 100   0.0000       1.155820        31.4515 
 101   0.0000       1.156453        31.4687 
 102   0.0000       1.203162        32.7397 
 103   0.0000       1.248967        33.9861 
 104   0.0000       1.258122        34.2352 
 105   0.0000       1.275467        34.7072 
 106   0.0000       1.323857        36.0240 
 107   0.0000       1.342027        36.5184 
 108   0.0000       1.404092        38.2073 
 109   0.0000       1.442622        39.2558 
 110   0.0000       1.456688        39.6385 
 111   0.0000       1.457109        39.6499 
 112   0.0000       1.548715        42.1427 
 113   0.0000       1.577167        42.9169 
 114   0.0000       1.596705        43.4486 
 115   0.0000       1.612524        43.8790 
 116   0.0000       1.627784        44.2943 
 117   0.0000       1.665565        45.3223 
 118   0.0000       1.667131        45.3649 
 119   0.0000       1.685494        45.8646 
 120   0.0000       1.701758        46.3072 
 121   0.0000       1.709134        46.5079 
 122   0.0000       1.721899        46.8553 
 123   0.0000       1.747059        47.5399 
 124   0.0000       1.767231        48.0888 
 125   0.0000       1.799740        48.9734 
 126   0.0000       1.824435        49.6454 
 127   0.0000       1.830161        49.8012 
 128   0.0000       1.864931        50.7474 
 129   0.0000       1.875962        51.0475 
 130   0.0000       1.909995        51.9736 
 131   0.0000       1.919932        52.2440 
 132   0.0000       1.930177        52.5228 
 133   0.0000       1.970903        53.6310 
 134   0.0000       1.973695        53.7070 
 135   0.0000       2.004145        54.5355 
 136   0.0000       2.040997        55.5383 
 137   0.0000       2.060862        56.0789 
 138   0.0000       2.094451        56.9929 
 139   0.0000       2.099264        57.1239 
 140   0.0000       2.137550        58.1657 
 141   0.0000       2.193715        59.6940 
 142   0.0000       2.195694        59.7479 
 143   0.0000       2.210227        60.1433 
 144   0.0000       2.210344        60.1465 
 145   0.0000       2.240551        60.9685 
 146   0.0000       2.271615        61.8138 
 147   0.0000       2.295608        62.4667 
 148   0.0000       2.317305        63.0571 
 149   0.0000       2.329123        63.3786 
 150   0.0000       2.369679        64.4823 
 151   0.0000       2.386119        64.9296 
 152   0.0000       2.422568        65.9214 
 153   0.0000       2.437881        66.3381 
 154   0.0000       2.452187        66.7274 
 155   0.0000       2.484120        67.5963 
 156   0.0000       2.497725        67.9666 
 157   0.0000       2.567474        69.8645 
 158   0.0000       2.576254        70.1034 
 159   0.0000       2.594720        70.6059 
 160   0.0000       2.605839        70.9085 
 161   0.0000       2.621644        71.3386 
 162   0.0000       2.626783        71.4784 
 163   0.0000       2.640430        71.8498 
 164   0.0000       2.718896        73.9849 
 165   0.0000       2.729378        74.2701 
 166   0.0000       2.743356        74.6505 
 167   0.0000       2.769633        75.3655 
 168   0.0000       2.804652        76.3185 
 169   0.0000       2.834673        77.1354 
 170   0.0000       2.861527        77.8661 
 171   0.0000       2.901746        78.9605 
 172   0.0000       2.910476        79.1981 
 173   0.0000       2.925221        79.5993 
 174   0.0000       2.937315        79.9284 
 175   0.0000       2.956200        80.4423 
 176   0.0000       2.988857        81.3309 
 177   0.0000       3.011228        81.9397 
 178   0.0000       3.035649        82.6042 
 179   0.0000       3.053989        83.1033 
 180   0.0000       3.061825        83.3165 
 181   0.0000       3.124565        85.0237 
 182   0.0000       3.155605        85.8684 
 183   0.0000       3.165196        86.1293 
 184   0.0000       3.198644        87.0395 
 185   0.0000       3.223959        87.7284 
 186   0.0000       3.233060        87.9760 
 187   0.0000       3.256587        88.6162 
 188   0.0000       3.295111        89.6645 
 189   0.0000       3.301702        89.8439 
 190   0.0000       3.325608        90.4944 
 191   0.0000       3.326189        90.5102 
 192   0.0000       3.338677        90.8500 
 193   0.0000       3.364295        91.5471 
 194   0.0000       3.373212        91.7898 
 195   0.0000       3.394565        92.3708 
 196   0.0000       3.427373        93.2636 
 197   0.0000       3.436988        93.5252 
 198   0.0000       3.449240        93.8586 
 199   0.0000       3.451796        93.9281 
 200   0.0000       3.488829        94.9359 
 201   0.0000       3.497910        95.1830 
 202   0.0000       3.500998        95.2670 
 203   0.0000       3.522582        95.8543 
 204   0.0000       3.523700        95.8848 
 205   0.0000       3.571013        97.1722 
 206   0.0000       3.579110        97.3925 
 207   0.0000       3.603290        98.0505 
 208   0.0000       3.611233        98.2666 
 209   0.0000       3.618163        98.4552 
 210   0.0000       3.664584        99.7184 
 211   0.0000       3.696195       100.5786 
 212   0.0000       3.703869       100.7874 
 213   0.0000       3.720667       101.2445 
 214   0.0000       3.748159       101.9926 
 215   0.0000       3.768939       102.5581 
 216   0.0000       3.785010       102.9954 
 217   0.0000       3.812052       103.7312 
 218   0.0000       3.848329       104.7184 
 219   0.0000       3.858545       104.9963 
 220   0.0000       3.870308       105.3164 
 221   0.0000       3.900783       106.1457 
 222   0.0000       3.917894       106.6113 
 223   0.0000       3.943330       107.3035 
 224   0.0000       3.943375       107.3047 
 225   0.0000       3.961189       107.7894 
 226   0.0000       4.006946       109.0345 
 227   0.0000       4.065859       110.6376 
 228   0.0000       4.114506       111.9614 
 229   0.0000       4.120901       112.1354 
 230   0.0000       4.172220       113.5319 
 231   0.0000       4.236357       115.2771 
 232   0.0000       4.278877       116.4342 
 233   0.0000       4.312377       117.3458 
 234   0.0000       4.435719       120.7020 
 235   0.0000       4.459447       121.3477 
 236   0.0000       4.483683       122.0072 
 237   0.0000       4.528538       123.2278 
 238   0.0000       4.544080       123.6507 
 239   0.0000       4.604113       125.2843 
 240   0.0000       4.675899       127.2377 
 241   0.0000       4.728520       128.6696 
 242   0.0000       4.760648       129.5438 
 243   0.0000       4.789117       130.3185 
 244   0.0000       4.878605       132.7536 
 245   0.0000       4.929653       134.1427 
 246   0.0000       4.986116       135.6791 
 247   0.0000       4.988942       135.7560 
 248   0.0000       5.006214       136.2260 
 249   0.0000       5.103041       138.8608 
 250   0.0000       5.135140       139.7343 
 251   0.0000       5.186945       141.1440 
 252   0.0000       5.196440       141.4023 
 253   0.0000       5.312837       144.5696 
 254   0.0000       5.378077       146.3449 
 255   0.0000       5.423471       147.5802 
 256   0.0000       5.493876       149.4960 
 257   0.0000       5.511873       149.9857 
 258   0.0000       5.542464       150.8181 
 259   0.0000       5.598123       152.3327 
 260   0.0000       5.627230       153.1247 
 261   0.0000       5.653082       153.8282 
 262   0.0000       5.665976       154.1790 
 263   0.0000       5.752637       156.5372 
 264   0.0000       5.811165       158.1298 
 265   0.0000       5.815283       158.2419 
 266   0.0000       5.899439       160.5319 
 267   0.0000       5.953567       162.0048 
 268   0.0000       5.986993       162.9144 
 269   0.0000       6.013062       163.6237 
 270   0.0000       6.015594       163.6926 
 271   0.0000       6.197054       168.6304 
 272   0.0000       6.206516       168.8879 
 273   0.0000       6.220447       169.2670 
 274   0.0000       6.346961       172.7096 
 275   0.0000       6.347695       172.7296 
 276   0.0000       6.386396       173.7827 
 277   0.0000       6.490480       176.6149 
 278   0.0000       6.584790       179.1812 
 279   0.0000       6.732047       183.1883 
 280   0.0000       6.732607       183.2035 
 281   0.0000       6.868232       186.8941 
 282   0.0000       6.873604       187.0403 
 283   0.0000       6.905708       187.9139 
 284   0.0000       7.002070       190.5360 
 285   0.0000       7.003308       190.5697 
 286   0.0000       7.025479       191.1730 
 287   0.0000       7.139087       194.2644 
 288   0.0000       7.170461       195.1182 
 289   0.0000       7.260783       197.5760 
 290   0.0000       7.311356       198.9521 
 291   0.0000       7.338030       199.6780 
 292   0.0000       7.382232       200.8807 
 293   0.0000       7.383380       200.9120 
 294   0.0000       7.567592       205.9246 
 295   0.0000       7.717155       209.9945 
 296   0.0000       7.778364       211.6600 
 297   0.0000       7.794523       212.0997 
 298   0.0000       7.954007       216.4395 
 299   0.0000       8.014922       218.0971 
 300   0.0000      23.428445       637.5204 
 301   0.0000      23.493547       639.2919 
 302   0.0000      23.904892       650.4852 
 303   0.0000      24.239037       659.5777 
 304   0.0000      24.552946       668.1196 
 305   0.0000      33.819760       920.2825 
 306   0.0000      45.433105      1236.2976 
 307   0.0000      45.683861      1243.1211 
 308   0.0000      45.884712      1248.5865 

                    ********************************
                    * MULLIKEN POPULATION ANALYSIS *
                    ********************************

-----------------------
MULLIKEN ATOMIC CHARGES
-----------------------
   0 C :   -0.181948
   1 N :   -0.315113
   2 C :    0.361564
   3 O :   -0.324144
   4 C :    0.590700
   5 O :   -0.393075
   6 O :   -0.303968
   7 C :    0.143128
   8 C :   -0.273641
   9 H :    0.129282
  10 H :    0.119088
  11 H :    0.119085
  12 H :    0.167709
  13 H :    0.161332
Sum of atomic charges:   -0.0000000

--------------------------------
MULLIKEN REDUCED ORBITAL CHARGES
--------------------------------
  0 C s       :     3.202611  s :     3.202611
      pz      :     1.059832  p :     2.878664
      px      :     1.068100
      py      :     0.750732
      dz2     :     0.018262  d :     0.093859
      dxz     :     0.008360
      dyz     :     0.021138
      dx2y2   :     0.016288
      dxy     :     0.029812
      f0      :     0.001473  f :     0.006814
      f+1     :     0.000174
      f-1     :     0.000814
      f+2     :     0.001005
      f-2     :     0.000206
      f+3     :     0.001332
      f-3     :     0.001810
  1 N s       :     3.553865  s :     3.553865
      pz      :     1.205762  p :     3.684780
      px      :     1.344572
      py      :     1.134445
      dz2     :     0.017491  d :     0.071939
      dxz     :     0.009521
      dyz     :     0.011391
      dx2y2   :     0.017209
      dxy     :     0.016328
      f0      :     0.000356  f :     0.004530
      f+1     :     0.000575
      f-1     :     0.000827
      f+2     :     0.000666
      f-2     :     0.000563
      f+3     :     0.000600
      f-3     :     0.000943
  2 C s       :     3.023412  s :     3.023412
      pz      :     0.803576  p :     2.360009
      px      :     0.718335
      py      :     0.838098
      dz2     :     0.052179  d :     0.234133
      dxz     :     0.034615
      dyz     :     0.034947
      dx2y2   :     0.069842
      dxy     :     0.042550
      f0      :     0.001421  f :     0.020882
      f+1     :     0.003442
      f-1     :     0.002540
      f+2     :     0.003971
      f-2     :     0.002563
      f+3     :     0.003856
      f-3     :     0.003090
  3 O s       :     3.745831  s :     3.745831
      pz      :     1.547873  p :     4.536224
      px      :     1.371960
      py      :     1.616391
      dz2     :     0.004662  d :     0.039733
      dxz     :     0.006671
      dyz     :     0.009431
      dx2y2   :     0.004917
      dxy     :     0.014053
      f0      :     0.000322  f :     0.002356
      f+1     :     0.000467
      f-1     :     0.000093
      f+2     :     0.000403
      f-2     :     0.000602
      f+3     :     0.000198
      f-3     :     0.000272
  4 C s       :     2.958057  s :     2.958057
      pz      :     0.688120  p :     2.079734
      px      :     0.709908
      py      :     0.681706
      dz2     :     0.064907  d :     0.336574
      dxz     :     0.044104
      dyz     :     0.059647
      dx2y2   :     0.095452
      dxy     :     0.072463
      f0      :     0.002438  f :     0.034934
      f+1     :     0.005096
      f-1     :     0.003727
      f+2     :     0.006742
      f-2     :     0.003342
      f+3     :     0.008850
      f-3     :     0.004740
  5 O s       :     3.822724  s :     3.822724
      pz      :     1.462895  p :     4.529244
      px      :     1.404408
      py      :     1.661941
      dz2     :     0.007070  d :     0.038602
      dxz     :     0.008289
      dyz     :     0.005839
      dx2y2   :     0.008705
      dxy     :     0.008699
      f0      :     0.000168  f :     0.002505
      f+1     :     0.000411
      f-1     :     0.000238
      f+2     :     0.000297
      f-2     :     0.000500
      f+3     :     0.000429
      f-3     :     0.000462
  6 O s       :     3.755227  s :     3.755227
      pz      :     1.675933  p :     4.503406
      px      :     1.545345
      py      :     1.282128
      dz2     :     0.006108  d :     0.042925
      dxz     :     0.007492
      dyz     :     0.006821
      dx2y2   :     0.015229
      dxy     :     0.007275
      f0      :     0.000288  f :     0.002410
      f+1     :     0.000209
      f-1     :     0.000313
      f+2     :     0.000307
      f-2     :     0.000315
      f+3     :     0.000383
      f-3     :     0.000595
  7 C s       :     3.099036  s :     3.099036
      pz      :     0.864506  p :     2.595155
      px      :     0.769996
      py      :     0.960653
      dz2     :     0.036809  d :     0.148492
      dxz     :     0.020016
      dyz     :     0.021211
      dx2y2   :     0.041286
      dxy     :     0.029170
      f0      :     0.000964  f :     0.014188
      f+1     :     0.002905
      f-1     :     0.001741
      f+2     :     0.002118
      f-2     :     0.002153
      f+3     :     0.002091
      f-3     :     0.002214
  8 C s       :     3.190362  s :     3.190362
      pz      :     1.034227  p :     2.990141
      px      :     1.027966
      py      :     0.927948
      dz2     :     0.018383  d :     0.084654
      dxz     :     0.010813
      dyz     :     0.014461
      dx2y2   :     0.020233
      dxy     :     0.020763
      f0      :     0.000899  f :     0.008484
      f+1     :     0.001568
      f-1     :     0.001062
      f+2     :     0.001391
      f-2     :     0.001110
      f+3     :     0.001106
      f-3     :     0.001348
  9 H s       :     0.849243  s :     0.849243
      pz      :     0.006166  p :     0.021475
      px      :     0.010388
      py      :     0.004922
 10 H s       :     0.859279  s :     0.859279
      pz      :     0.014444  p :     0.021633
      px      :     0.003764
      py      :     0.003425
 11 H s       :     0.859282  s :     0.859282
      pz      :     0.004716  p :     0.021633
      px      :     0.011661
      py      :     0.005256
 12 H s       :     0.808899  s :     0.808899
      pz      :     0.003684  p :     0.023391
      px      :     0.002516
      py      :     0.017192
 13 H s       :     0.814098  s :     0.814098
      pz      :     0.006906  p :     0.024569
      px      :     0.011255
      py      :     0.006408


                     *******************************
                     * LOEWDIN POPULATION ANALYSIS *
                     *******************************

----------------------
LOEWDIN ATOMIC CHARGES
----------------------
   0 C :   -0.289038
   1 N :    0.079575
   2 C :   -0.283721
   3 O :    0.271692
   4 C :   -0.467306
   5 O :    0.092488
   6 O :    0.264707
   7 C :   -0.159162
   8 C :   -0.146521
   9 H :    0.106341
  10 H :    0.112190
  11 H :    0.112193
  12 H :    0.145294
  13 H :    0.161269

-------------------------------
LOEWDIN REDUCED ORBITAL CHARGES
-------------------------------
  0 C s       :     2.836456  s :     2.836456
      pz      :     1.076818  p :     3.060530
      px      :     1.081129
      py      :     0.902583
      dz2     :     0.067385  d :     0.351580
      dxz     :     0.023861
      dyz     :     0.075762
      dx2y2   :     0.072108
      dxy     :     0.112464
      f0      :     0.005919  f :     0.040472
      f+1     :     0.000774
      f-1     :     0.005328
      f+2     :     0.007172
      f-2     :     0.003475
      f+3     :     0.009762
      f-3     :     0.008041
  1 N s       :     3.048042  s :     3.048042
      pz      :     1.161901  p :     3.650778
      px      :     1.300961
      py      :     1.187915
      dz2     :     0.031305  d :     0.204815
      dxz     :     0.022581
      dyz     :     0.047214
      dx2y2   :     0.049587
      dxy     :     0.054128
      f0      :     0.001776  f :     0.016790
      f+1     :     0.001726
      f-1     :     0.001729
      f+2     :     0.002900
      f-2     :     0.002627
      f+3     :     0.003354
      f-3     :     0.002677
  2 C s       :     2.721432  s :     2.721432
      pz      :     0.836708  p :     2.641334
      px      :     0.824634
      py      :     0.979992
      dz2     :     0.133873  d :     0.806498
      dxz     :     0.138826
      dyz     :     0.137669
      dx2y2   :     0.216666
      dxy     :     0.179463
      f0      :     0.009702  f :     0.114457
      f+1     :     0.013584
      f-1     :     0.011457
      f+2     :     0.021487
      f-2     :     0.015880
      f+3     :     0.025038
      f-3     :     0.017311
  3 O s       :     3.231626  s :     3.231626
      pz      :     1.470887  p :     4.393861
      px      :     1.364315
      py      :     1.558660
      dz2     :     0.012397  d :     0.097021
      dxz     :     0.023835
      dyz     :     0.016874
      dx2y2   :     0.016579
      dxy     :     0.027336
      f0      :     0.000709  f :     0.005799
      f+1     :     0.000964
      f-1     :     0.000377
      f+2     :     0.001025
      f-2     :     0.001024
      f+3     :     0.001044
      f-3     :     0.000656
  4 C s       :     2.722002  s :     2.722002
      pz      :     0.761055  p :     2.451761
      px      :     0.846585
      py      :     0.844122
      dz2     :     0.176267  d :     1.089438
      dxz     :     0.161562
      dyz     :     0.198632
      dx2y2   :     0.296466
      dxy     :     0.256512
      f0      :     0.016797  f :     0.204104
      f+1     :     0.022614
      f-1     :     0.022756
      f+2     :     0.038545
      f-2     :     0.021844
      f+3     :     0.052777
      f-3     :     0.028771
  5 O s       :     3.397437  s :     3.397437
      pz      :     1.410988  p :     4.437232
      px      :     1.447281
      py      :     1.578963
      dz2     :     0.008642  d :     0.066671
      dxz     :     0.016707
      dyz     :     0.009627
      dx2y2   :     0.012885
      dxy     :     0.018810
      f0      :     0.000622  f :     0.006172
      f+1     :     0.000735
      f-1     :     0.000354
      f+2     :     0.000760
      f-2     :     0.001526
      f+3     :     0.000902
      f-3     :     0.001272
  6 O s       :     3.231670  s :     3.231670
      pz      :     1.566082  p :     4.390145
      px      :     1.495523
      py      :     1.328540
      dz2     :     0.015104  d :     0.107038
      dxz     :     0.013374
      dyz     :     0.017547
      dx2y2   :     0.036674
      dxy     :     0.024339
      f0      :     0.000478  f :     0.006440
      f+1     :     0.000665
      f-1     :     0.000753
      f+2     :     0.001166
      f-2     :     0.000683
      f+3     :     0.001503
      f-3     :     0.001191
  7 C s       :     2.784035  s :     2.784035
      pz      :     0.899444  p :     2.750649
      px      :     0.890758
      py      :     0.960447
      dz2     :     0.107797  d :     0.543586
      dxz     :     0.107933
      dyz     :     0.066858
      dx2y2   :     0.165810
      dxy     :     0.095188
      f0      :     0.006253  f :     0.080891
      f+1     :     0.011141
      f-1     :     0.009238
      f+2     :     0.013116
      f-2     :     0.013740
      f+3     :     0.014750
      f-3     :     0.012654
  8 C s       :     2.764009  s :     2.764009
      pz      :     0.984735  p :     2.984883
      px      :     1.005705
      py      :     0.994443
      dz2     :     0.047516  d :     0.356668
      dxz     :     0.044454
      dyz     :     0.078226
      dx2y2   :     0.088505
      dxy     :     0.097968
      f0      :     0.004374  f :     0.040961
      f+1     :     0.004264
      f-1     :     0.004470
      f+2     :     0.007640
      f-2     :     0.005329
      f+3     :     0.008398
      f-3     :     0.006486
  9 H s       :     0.831735  s :     0.831735
      pz      :     0.018974  p :     0.061924
      px      :     0.029181
      py      :     0.013768
 10 H s       :     0.828582  s :     0.828582
      pz      :     0.036736  p :     0.059229
      px      :     0.012811
      py      :     0.009682
 11 H s       :     0.828579  s :     0.828579
      pz      :     0.015046  p :     0.059229
      px      :     0.030821
      py      :     0.013362
 12 H s       :     0.794327  s :     0.794327
      pz      :     0.011107  p :     0.060378
      px      :     0.008317
      py      :     0.040954
 13 H s       :     0.776941  s :     0.776941
      pz      :     0.018161  p :     0.061790
      px      :     0.026878
      py      :     0.016752


                      *****************************
                      * MAYER POPULATION ANALYSIS *
                      *****************************

  NA   - Mulliken gross atomic population
  ZA   - Total nuclear charge
  QA   - Mulliken gross atomic charge
  VA   - Mayer's total valence
  BVA  - Mayer's bonded valence
  FA   - Mayer's free valence

  ATOM       NA         ZA         QA         VA         BVA        FA
  0 C      6.1819     6.0000    -0.1819     3.8602     3.8602     0.0000
  1 N      7.3151     7.0000    -0.3151     2.9181     2.9181     0.0000
  2 C      5.6384     6.0000     0.3616     4.0932     4.0932     0.0000
  3 O      8.3241     8.0000    -0.3241     2.0291     2.0291     0.0000
  4 C      5.4093     6.0000     0.5907     4.3732     4.3732    -0.0000
  5 O      8.3931     8.0000    -0.3931     2.0922     2.0922    -0.0000
  6 O      8.3040     8.0000    -0.3040     2.0302     2.0302    -0.0000
  7 C      5.8569     6.0000     0.1431     3.8965     3.8965    -0.0000
  8 C      6.2736     6.0000    -0.2736     3.8732     3.8732    -0.0000
  9 H      0.8707     1.0000     0.1293     0.9677     0.9677     0.0000
 10 H      0.8809     1.0000     0.1191     0.9642     0.9642     0.0000
 11 H      0.8809     1.0000     0.1191     0.9642     0.9642     0.0000
 12 H      0.8323     1.0000     0.1677     0.9676     0.9676     0.0000
 13 H      0.8387     1.0000     0.1613     0.9838     0.9838     0.0000

  Mayer bond orders larger than 0.1
B(  0-C ,  1-N ) :   0.8756 B(  0-C ,  9-H ) :   0.9817 B(  0-C , 10-H ) :   0.9811 
B(  0-C , 11-H ) :   0.9811 B(  1-N ,  2-C ) :   2.0514 B(  2-C ,  3-O ) :   0.9208 
B(  2-C ,  8-C ) :   1.0539 B(  3-O ,  4-C ) :   1.1355 B(  4-C ,  5-O ) :   2.1106 
B(  4-C ,  6-O ) :   1.0718 B(  6-O ,  7-C ) :   0.9800 B(  7-C ,  8-C ) :   1.8851 
B(  7-C , 12-H ) :   0.9727 B(  8-C , 13-H ) :   0.9594 

-------
TIMINGS
-------

Total SCF time: 0 days 0 hours 1 min 56 sec 

Total time                  ....     116.812 sec
Sum of individual times     ....     119.947 sec  (102.7%)

Fock matrix formation       ....     115.505 sec  ( 98.9%)
Diagonalization             ....       0.562 sec  (  0.5%)
Density matrix formation    ....       0.039 sec  (  0.0%)
Population analysis         ....       0.123 sec  (  0.1%)
Initial guess               ....       2.180 sec  (  1.9%)
Orbital Transformation      ....       0.000 sec  (  0.0%)
Orbital Orthonormalization  ....       0.000 sec  (  0.0%)
DIIS solution               ....       0.174 sec  (  0.1%)
SOSCF solution              ....       0.290 sec  (  0.2%)

   <<< Auxbasis replaced with dsgdb9nsd_030419.AUXC.tmp (Dim=759) >>> 


------------------------------------------------------------------------------
                              ORCA MP2 CALCULATION
------------------------------------------------------------------------------

Freezing NCore=18 chemical core electrons

   <<< Use J-auxbasis for calculation of Separable RI-J derivative contributions dsgdb9nsd_030419.AUXJ.tmp (Dim=773) >>> 


---------------------
RI-MP2 ENERGY+DENSITY
---------------------
Dimension of the basis                    ...  309
Memory devoted to MP2                     ... 2000 MB   
Data format for buffers                   ... DOUBLE
Compression type for matrix containers    ... UNCOMPRESSED
Overall scaling of the MP2 energy         ...   1.000e+00 Eh
Calculating two index integrals           ... done (    0.015 sec)
Cholesky decomposition of V**-1           ... done (    0.089 sec)

-----------------
RI-TRANSFORMATION (AUX index driven)
-----------------

Dimension of the orbital-basis         ... 309
Dimension of the aux-basis             ... 759
Transformation of internal MOs         ...    0-  32
Transformation of internal/external MOs...    0-  32 to   33- 308
Number Format for Storage              ... Double (8 Byte)
Integral mode                          ... Direct

First Phase: integral generation and transformation of MO indices
  Aux angular momentum 0               ... done (    0.520 sec)
  Aux angular momentum 1               ... done (    0.730 sec)
  Aux angular momentum 2               ... done (    0.813 sec)
  Aux angular momentum 3               ... done (    0.711 sec)
  Aux angular momentum 4               ... done (    0.324 sec)
Closing buffer VIJ ( 0.00 GB; CompressionRatio= 1.94)
Closing buffer VIA ( 0.05 GB; CompressionRatio= 1.00)
  Phase 1 completed in     3.197 sec
Second Phase: sorting and transformation of aux index

IJ-Transformation
Memory available                       ... 1989 MB 
Max. # MO pairs treated in a batch     ... 33    
# of internal orbitals                 ... 33
# batches for internal orbitals        ... 1
Closing buffer IJV ( 0.00 GB; CompressionRatio= 1.00)
(ij|v) transformation done in     0.155 sec

IA-Transformation
Memory available                       ... 1989 MB 
Max. # MO pairs treated in a batch     ... 33    
# of internal orbitals                 ... 33
# batches for internal orbitals        ... 1
Closing buffer IAV ( 0.05 GB; CompressionRatio= 1.00)
(ia|v) transformation done in     1.078 sec

  Phase 2 completed in     1.251 sec
RI-Integral transformation completed in     4.449 sec
Opening buffers                              ... done
Frozen core precalculation                   ... done

Starting loop over batches of integrals:

Operator 0  - window                       ... (  9- 32)x( 33-308)
Operator 0  - Memory available             ...  2000 MB
Operator 0  - Memory needed per MO         ...   3.2 MB
Operator 0  - Number of orbitals per batch ... 24
Operator 0  - Number of batches            ... 1

OPERATOR  0   PASS   0:  MOs     9 ...   32
  Reading integrals       ... ok
  Internal MO  11
  Internal MO  14
  Internal MO  17
  Internal MO  20
  Internal MO  23
  Internal MO  26
  Internal MO  29
  Internal MO  32
Time spent in pair loops =    26.167 sec
Deleting buffer (Ka|jb)[aa] ...done

-----------------------------------------------
 RI-MP2 CORRELATION ENERGY:     -1.650510522 Eh
-----------------------------------------------


---------------------
MP2 DENSITY FORMATION
---------------------

Completing the external part of the density      ... done
Storing the unrelaxed density                    ... done

Calculating G(D)                                 ... done
Completing the Lagrangian                        ... done
Solving the Z-vector equations                   ... 

------------------------------------------------------------------------------
                           ORCA CP-SCF CALCULATION
------------------------------------------------------------------------------

Input orbitals are from        ... dsgdb9nsd_030419.gbw
Input Perturbation             ... dsgdb9nsd_030419.pin.tmp
Wavefunction output            ... dsgdb9nsd_030419.pout.tmp
Perturbation mode              ... Real perturbation
Solver                         ... POPLE
Max. number of iterations      ... 128
Convergence tolerance          ... 1.000e-08
Integral handling              ... Direct
Number of perturbations        ... 1
Number of operators            ... 1
Orbital ranges used for CP-SCF:
 Operator 0:  Orbitals   0... 32  to  33...308
Variables per vector in CP-SCF ... 9108
Number of vectors sought       ... 1
     CP-SCF ITERATION   0: 
     CP-SCF ITERATION   1:      0.002476672
     CP-SCF ITERATION   2:      0.000531433
     CP-SCF ITERATION   3:      0.000032323
     CP-SCF ITERATION   4:      0.000007697
     CP-SCF ITERATION   5:      0.000000694
     CP-SCF ITERATION   6:      0.000000108
     CP-SCF ITERATION   7:      0.000000013
     CP-SCF ITERATION   8:      0.000000002
done
Finalizing the relaxed density                   ... done
Transforming P to the AO basis                   ... done
Storing the relaxed density                      ... done

                *********************************************
                * UNRELAXED MP2 DENSITY POPULATION ANALYSIS *
                *********************************************

------------------------------------------------------------------------------
                           ORCA POPULATION ANALYSIS
------------------------------------------------------------------------------
Input electron density              ... dsgdb9nsd_030419.pmp2ur
BaseName (.gbw .S,...)              ... dsgdb9nsd_030419

                    ********************************
                    * MULLIKEN POPULATION ANALYSIS *
                    ********************************

-----------------------
MULLIKEN ATOMIC CHARGES
-----------------------
   0 C :   -0.193180
   1 N :   -0.298994
   2 C :    0.340295
   3 O :   -0.304953
   4 C :    0.547623
   5 O :   -0.369321
   6 O :   -0.284961
   7 C :    0.128267
   8 C :   -0.276255
   9 H :    0.131571
  10 H :    0.122159
  11 H :    0.122156
  12 H :    0.170680
  13 H :    0.164914
Sum of atomic charges:   -0.0000000

--------------------------------
MULLIKEN REDUCED ORBITAL CHARGES
--------------------------------
  0 C s       :     3.199988  s :     3.199988
      pz      :     1.054184  p :     2.866523
      px      :     1.062264
      py      :     0.750075
      dz2     :     0.022679  d :     0.116310
      dxz     :     0.013758
      dyz     :     0.025880
      dx2y2   :     0.019836
      dxy     :     0.034156
      f0      :     0.001940  f :     0.010359
      f+1     :     0.000735
      f-1     :     0.001318
      f+2     :     0.001508
      f-2     :     0.000734
      f+3     :     0.001896
      f-3     :     0.002227
  1 N s       :     3.544979  s :     3.544979
      pz      :     1.193749  p :     3.645927
      px      :     1.329701
      py      :     1.122477
      dz2     :     0.022708  d :     0.100347
      dxz     :     0.014894
      dyz     :     0.017361
      dx2y2   :     0.023379
      dxy     :     0.022006
      f0      :     0.000797  f :     0.007741
      f+1     :     0.001005
      f-1     :     0.001254
      f+2     :     0.001147
      f-2     :     0.000997
      f+3     :     0.001131
      f-3     :     0.001410
  2 C s       :     3.025513  s :     3.025513
      pz      :     0.806098  p :     2.361044
      px      :     0.722190
      py      :     0.832757
      dz2     :     0.054951  d :     0.248745
      dxz     :     0.037175
      dyz     :     0.038462
      dx2y2   :     0.072402
      dxy     :     0.045754
      f0      :     0.001891  f :     0.024403
      f+1     :     0.003837
      f-1     :     0.002996
      f+2     :     0.004508
      f-2     :     0.002979
      f+3     :     0.004571
      f-3     :     0.003621
  3 O s       :     3.740470  s :     3.740470
      pz      :     1.531674  p :     4.489519
      px      :     1.357914
      py      :     1.599931
      dz2     :     0.010905  d :     0.069792
      dxz     :     0.012931
      dyz     :     0.015140
      dx2y2   :     0.011170
      dxy     :     0.019646
      f0      :     0.000708  f :     0.005173
      f+1     :     0.000860
      f-1     :     0.000501
      f+2     :     0.000799
      f-2     :     0.001002
      f+3     :     0.000616
      f-3     :     0.000687
  4 C s       :     2.962974  s :     2.962974
      pz      :     0.699396  p :     2.103713
      px      :     0.716929
      py      :     0.687388
      dz2     :     0.067106  d :     0.347921
      dxz     :     0.046196
      dyz     :     0.062312
      dx2y2   :     0.097233
      dxy     :     0.075074
      f0      :     0.002860  f :     0.037769
      f+1     :     0.005333
      f-1     :     0.004091
      f+2     :     0.007151
      f-2     :     0.003737
      f+3     :     0.009346
      f-3     :     0.005250
  5 O s       :     3.816848  s :     3.816848
      pz      :     1.446996  p :     4.482880
      px      :     1.390741
      py      :     1.645143
      dz2     :     0.012252  d :     0.064426
      dxz     :     0.013254
      dyz     :     0.011069
      dx2y2   :     0.014042
      dxy     :     0.013810
      f0      :     0.000534  f :     0.005167
      f+1     :     0.000798
      f-1     :     0.000601
      f+2     :     0.000683
      f-2     :     0.000871
      f+3     :     0.000830
      f-3     :     0.000849
  6 O s       :     3.749915  s :     3.749915
      pz      :     1.658239  p :     4.457653
      px      :     1.529276
      py      :     1.270138
      dz2     :     0.011943  d :     0.072155
      dxz     :     0.013108
      dyz     :     0.012898
      dx2y2   :     0.020794
      dxy     :     0.013412
      f0      :     0.000678  f :     0.005239
      f+1     :     0.000604
      f-1     :     0.000712
      f+2     :     0.000721
      f-2     :     0.000710
      f+3     :     0.000813
      f-3     :     0.001001
  7 C s       :     3.097965  s :     3.097965
      pz      :     0.864013  p :     2.590906
      px      :     0.770540
      py      :     0.956353
      dz2     :     0.039942  d :     0.165313
      dxz     :     0.023116
      dyz     :     0.025123
      dx2y2   :     0.045092
      dxy     :     0.032040
      f0      :     0.001401  f :     0.017550
      f+1     :     0.003309
      f-1     :     0.002205
      f+2     :     0.002653
      f-2     :     0.002531
      f+3     :     0.002754
      f-3     :     0.002697
  8 C s       :     3.189723  s :     3.189723
      pz      :     1.023977  p :     2.964993
      px      :     1.019559
      py      :     0.921456
      dz2     :     0.023087  d :     0.109256
      dxz     :     0.015574
      dyz     :     0.019999
      dx2y2   :     0.024687
      dxy     :     0.025908
      f0      :     0.001392  f :     0.012283
      f+1     :     0.002024
      f-1     :     0.001561
      f+2     :     0.001986
      f-2     :     0.001598
      f+3     :     0.001855
      f-3     :     0.001867
  9 H s       :     0.843851  s :     0.843851
      pz      :     0.007223  p :     0.024578
      px      :     0.011326
      py      :     0.006030
 10 H s       :     0.853141  s :     0.853141
      pz      :     0.015273  p :     0.024700
      px      :     0.004863
      py      :     0.004565
 11 H s       :     0.853143  s :     0.853143
      pz      :     0.005790  p :     0.024700
      px      :     0.012552
      py      :     0.006358
 12 H s       :     0.803106  s :     0.803106
      pz      :     0.004776  p :     0.026214
      px      :     0.003620
      py      :     0.017818
 13 H s       :     0.807774  s :     0.807774
      pz      :     0.007855  p :     0.027312
      px      :     0.012072
      py      :     0.007386


                     *******************************
                     * LOEWDIN POPULATION ANALYSIS *
                     *******************************

----------------------
LOEWDIN ATOMIC CHARGES
----------------------
   0 C :   -0.295320
   1 N :    0.086195
   2 C :   -0.292174
   3 O :    0.281534
   4 C :   -0.490359
   5 O :    0.107212
   6 O :    0.274998
   7 C :   -0.168403
   8 C :   -0.150068
   9 H :    0.107910
  10 H :    0.114185
  11 H :    0.114188
  12 H :    0.146957
  13 H :    0.163145

-------------------------------
LOEWDIN REDUCED ORBITAL CHARGES
-------------------------------
  0 C s       :     2.835022  s :     2.835022
      pz      :     1.069305  p :     3.040373
      px      :     1.073625
      py      :     0.897444
      dz2     :     0.072419  d :     0.374135
      dxz     :     0.029512
      dyz     :     0.079489
      dx2y2   :     0.076925
      dxy     :     0.115789
      f0      :     0.006736  f :     0.045789
      f+1     :     0.001420
      f-1     :     0.006163
      f+2     :     0.007796
      f-2     :     0.004173
      f+3     :     0.010390
      f-3     :     0.009111
  1 N s       :     3.043824  s :     3.043824
      pz      :     1.150293  p :     3.612241
      px      :     1.286780
      py      :     1.175167
      dz2     :     0.037684  d :     0.236341
      dxz     :     0.029135
      dyz     :     0.052944
      dx2y2   :     0.056554
      dxy     :     0.060025
      f0      :     0.002335  f :     0.021399
      f+1     :     0.002355
      f-1     :     0.002409
      f+2     :     0.003534
      f-2     :     0.003327
      f+3     :     0.004008
      f-3     :     0.003431
  2 C s       :     2.720514  s :     2.720514
      pz      :     0.836120  p :     2.632864
      px      :     0.824120
      py      :     0.972625
      dz2     :     0.135505  d :     0.817204
      dxz     :     0.141958
      dyz     :     0.140534
      dx2y2   :     0.217444
      dxy     :     0.181763
      f0      :     0.010590  f :     0.121592
      f+1     :     0.014579
      f-1     :     0.012334
      f+2     :     0.022307
      f-2     :     0.017245
      f+3     :     0.025815
      f-3     :     0.018722
  3 O s       :     3.229658  s :     3.229658
      pz      :     1.456112  p :     4.350336
      px      :     1.351021
      py      :     1.543203
      dz2     :     0.018682  d :     0.129310
      dxz     :     0.031085
      dyz     :     0.023082
      dx2y2   :     0.022810
      dxy     :     0.033652
      f0      :     0.001159  f :     0.009163
      f+1     :     0.001439
      f-1     :     0.000816
      f+2     :     0.001482
      f-2     :     0.001599
      f+3     :     0.001501
      f-3     :     0.001168
  4 C s       :     2.723710  s :     2.723710
      pz      :     0.768831  p :     2.463830
      px      :     0.849719
      py      :     0.845280
      dz2     :     0.176842  d :     1.093027
      dxz     :     0.163857
      dyz     :     0.199617
      dx2y2   :     0.295537
      dxy     :     0.257174
      f0      :     0.017521  f :     0.209792
      f+1     :     0.023361
      f-1     :     0.023339
      f+2     :     0.038921
      f-2     :     0.023321
      f+3     :     0.052836
      f-3     :     0.030494
  5 O s       :     3.393234  s :     3.393234
      pz      :     1.396272  p :     4.393378
      px      :     1.433225
      py      :     1.563882
      dz2     :     0.014506  d :     0.096597
      dxz     :     0.022636
      dyz     :     0.015486
      dx2y2   :     0.019024
      dxy     :     0.024945
      f0      :     0.001062  f :     0.009579
      f+1     :     0.001243
      f-1     :     0.000771
      f+2     :     0.001230
      f-2     :     0.002073
      f+3     :     0.001398
      f-3     :     0.001802
  6 O s       :     3.229496  s :     3.229496
      pz      :     1.550308  p :     4.347603
      px      :     1.480753
      py      :     1.316542
      dz2     :     0.021248  d :     0.138109
      dxz     :     0.019528
      dyz     :     0.023740
      dx2y2   :     0.042946
      dxy     :     0.030647
      f0      :     0.000926  f :     0.009794
      f+1     :     0.001086
      f-1     :     0.001225
      f+2     :     0.001638
      f-2     :     0.001158
      f+3     :     0.001992
      f-3     :     0.001769
  7 C s       :     2.782288  s :     2.782288
      pz      :     0.896288  p :     2.738001
      px      :     0.887362
      py      :     0.954351
      dz2     :     0.110178  d :     0.561312
      dxz     :     0.112278
      dyz     :     0.071467
      dx2y2   :     0.168092
      dxy     :     0.099296
      f0      :     0.007025  f :     0.086802
      f+1     :     0.012087
      f-1     :     0.009805
      f+2     :     0.013873
      f-2     :     0.014839
      f+3     :     0.015433
      f-3     :     0.013741
  8 C s       :     2.761904  s :     2.761904
      pz      :     0.973827  p :     2.954096
      px      :     0.995579
      py      :     0.984690
      dz2     :     0.053639  d :     0.386202
      dxz     :     0.051125
      dyz     :     0.083830
      dx2y2   :     0.094153
      dxy     :     0.103455
      f0      :     0.005188  f :     0.047866
      f+1     :     0.005166
      f-1     :     0.005399
      f+2     :     0.008581
      f-2     :     0.006381
      f+3     :     0.009400
      f-3     :     0.007751
  9 H s       :     0.824910  s :     0.824910
      pz      :     0.020522  p :     0.067180
      px      :     0.031189
      py      :     0.015469
 10 H s       :     0.821476  s :     0.821476
      pz      :     0.039169  p :     0.064339
      px      :     0.014048
      py      :     0.011122
 11 H s       :     0.821473  s :     0.821473
      pz      :     0.016388  p :     0.064339
      px      :     0.032935
      py      :     0.015016
 12 H s       :     0.787866  s :     0.787866
      pz      :     0.012429  p :     0.065177
      px      :     0.009617
      py      :     0.043130
 13 H s       :     0.770365  s :     0.770365
      pz      :     0.019522  p :     0.066490
      px      :     0.028616
      py      :     0.018353


                      *****************************
                      * MAYER POPULATION ANALYSIS *
                      *****************************

  NA   - Mulliken gross atomic population
  ZA   - Total nuclear charge
  QA   - Mulliken gross atomic charge
  VA   - Mayer's total valence
  BVA  - Mayer's bonded valence
  FA   - Mayer's free valence

  ATOM       NA         ZA         QA         VA         BVA        FA
  0 C      6.1932     6.0000    -0.1932     3.9718     3.6809     0.2909
  1 N      7.2990     7.0000    -0.2990     3.1376     2.6808     0.4569
  2 C      5.6597     6.0000     0.3403     4.1636     3.7996     0.3639
  3 O      8.3050     8.0000    -0.3050     2.3141     1.8842     0.4298
  4 C      5.4524     6.0000     0.5476     4.4358     4.0889     0.3469
  5 O      8.3693     8.0000    -0.3693     2.3790     1.9393     0.4397
  6 O      8.2850     8.0000    -0.2850     2.3081     1.8890     0.4191
  7 C      5.8717     6.0000     0.1283     3.9858     3.6379     0.3479
  8 C      6.2763     6.0000    -0.2763     3.9930     3.6226     0.3705
  9 H      0.8684     1.0000     0.1316     0.9766     0.9270     0.0496
 10 H      0.8778     1.0000     0.1222     0.9731     0.9238     0.0493
 11 H      0.8778     1.0000     0.1222     0.9731     0.9238     0.0493
 12 H      0.8293     1.0000     0.1707     0.9740     0.9291     0.0449
 13 H      0.8351     1.0000     0.1649     0.9901     0.9434     0.0468

  Mayer bond orders larger than 0.1
B(  0-C ,  1-N ) :   0.8188 B(  0-C ,  9-H ) :   0.9426 B(  0-C , 10-H ) :   0.9425 
B(  0-C , 11-H ) :   0.9425 B(  1-N ,  2-C ) :   1.8909 B(  2-C ,  3-O ) :   0.8607 
B(  2-C ,  8-C ) :   0.9961 B(  3-O ,  4-C ) :   1.0657 B(  4-C ,  5-O ) :   1.9698 
B(  4-C ,  6-O ) :   1.0048 B(  6-O ,  7-C ) :   0.9211 B(  7-C ,  8-C ) :   1.7406 
B(  7-C , 12-H ) :   0.9368 B(  8-C , 13-H ) :   0.9223 


                *******************************************
                * RELAXED MP2 DENSITY POPULATION ANALYSIS *
                *******************************************

------------------------------------------------------------------------------
                           ORCA POPULATION ANALYSIS
------------------------------------------------------------------------------
Input electron density              ... dsgdb9nsd_030419.pmp2re
BaseName (.gbw .S,...)              ... dsgdb9nsd_030419

                    ********************************
                    * MULLIKEN POPULATION ANALYSIS *
                    ********************************

-----------------------
MULLIKEN ATOMIC CHARGES
-----------------------
   0 C :   -0.278838
   1 N :   -0.215172
   2 C :    0.227760
   3 O :   -0.219686
   4 C :    0.353876
   5 O :   -0.254840
   6 O :   -0.204305
   7 C :    0.074080
   8 C :   -0.239795
   9 H :    0.144266
  10 H :    0.144255
  11 H :    0.144253
  12 H :    0.163282
  13 H :    0.160864
Sum of atomic charges:   -0.0000000

--------------------------------
MULLIKEN REDUCED ORBITAL CHARGES
--------------------------------
  0 C s       :     3.220343  s :     3.220343
      pz      :     1.080211  p :     2.944092
      px      :     1.087871
      py      :     0.776010
      dz2     :     0.018545  d :     0.104555
      dxz     :     0.011568
      dyz     :     0.025314
      dx2y2   :     0.016484
      dxy     :     0.032644
      f0      :     0.001829  f :     0.009849
      f+1     :     0.000724
      f-1     :     0.001253
      f+2     :     0.001442
      f-2     :     0.000700
      f+3     :     0.001860
      f-3     :     0.002040
  1 N s       :     3.517119  s :     3.517119
      pz      :     1.191101  p :     3.597016
      px      :     1.319527
      py      :     1.086388
      dz2     :     0.019673  d :     0.093599
      dxz     :     0.014252
      dyz     :     0.017333
      dx2y2   :     0.021483
      dxy     :     0.020858
      f0      :     0.000786  f :     0.007437
      f+1     :     0.000937
      f-1     :     0.001169
      f+2     :     0.001168
      f-2     :     0.000916
      f+3     :     0.001153
      f-3     :     0.001309
  2 C s       :     3.052492  s :     3.052492
      pz      :     0.852826  p :     2.457662
      px      :     0.772438
      py      :     0.832398
      dz2     :     0.048481  d :     0.239271
      dxz     :     0.038462
      dyz     :     0.038178
      dx2y2   :     0.068640
      dxy     :     0.045510
      f0      :     0.001853  f :     0.022815
      f+1     :     0.003543
      f-1     :     0.002664
      f+2     :     0.004281
      f-2     :     0.002873
      f+3     :     0.004342
      f-3     :     0.003258
  3 O s       :     3.735699  s :     3.735699
      pz      :     1.494604  p :     4.410503
      px      :     1.336568
      py      :     1.579331
      dz2     :     0.011496  d :     0.068385
      dxz     :     0.012941
      dyz     :     0.014126
      dx2y2   :     0.012024
      dxy     :     0.017798
      f0      :     0.000680  f :     0.005100
      f+1     :     0.000875
      f-1     :     0.000511
      f+2     :     0.000805
      f-2     :     0.000935
      f+3     :     0.000628
      f-3     :     0.000666
  4 C s       :     2.982808  s :     2.982808
      pz      :     0.782492  p :     2.282657
      px      :     0.768353
      py      :     0.731812
      dz2     :     0.064240  d :     0.345494
      dxz     :     0.046174
      dyz     :     0.062760
      dx2y2   :     0.095244
      dxy     :     0.077077
      f0      :     0.002823  f :     0.035164
      f+1     :     0.004781
      f-1     :     0.003710
      f+2     :     0.006753
      f-2     :     0.003591
      f+3     :     0.008681
      f-3     :     0.004825
  5 O s       :     3.794316  s :     3.794316
      pz      :     1.414643  p :     4.394421
      px      :     1.376453
      py      :     1.603325
      dz2     :     0.011644  d :     0.061086
      dxz     :     0.012574
      dyz     :     0.010333
      dx2y2   :     0.013632
      dxy     :     0.012902
      f0      :     0.000509  f :     0.005017
      f+1     :     0.000781
      f-1     :     0.000596
      f+2     :     0.000684
      f-2     :     0.000807
      f+3     :     0.000844
      f-3     :     0.000796
  6 O s       :     3.744316  s :     3.744316
      pz      :     1.615657  p :     4.384334
      px      :     1.501447
      py      :     1.267230
      dz2     :     0.011978  d :     0.070492
      dxz     :     0.012548
      dyz     :     0.013129
      dx2y2   :     0.019048
      dxy     :     0.013789
      f0      :     0.000666  f :     0.005164
      f+1     :     0.000617
      f-1     :     0.000693
      f+2     :     0.000722
      f-2     :     0.000688
      f+3     :     0.000840
      f-3     :     0.000937
  7 C s       :     3.122035  s :     3.122035
      pz      :     0.896515  p :     2.634807
      px      :     0.793110
      py      :     0.945182
      dz2     :     0.033956  d :     0.152383
      dxz     :     0.023351
      dyz     :     0.023732
      dx2y2   :     0.043246
      dxy     :     0.028099
      f0      :     0.001361  f :     0.016694
      f+1     :     0.003101
      f-1     :     0.002029
      f+2     :     0.002648
      f-2     :     0.002417
      f+3     :     0.002656
      f-3     :     0.002480
  8 C s       :     3.193345  s :     3.193345
      pz      :     1.005233  p :     2.939550
      px      :     1.001038
      py      :     0.933278
      dz2     :     0.018353  d :     0.095233
      dxz     :     0.013967
      dyz     :     0.019732
      dx2y2   :     0.019701
      dxy     :     0.023481
      f0      :     0.001351  f :     0.011667
      f+1     :     0.001881
      f-1     :     0.001428
      f+2     :     0.001994
      f-2     :     0.001491
      f+3     :     0.001907
      f-3     :     0.001616
  9 H s       :     0.832075  s :     0.832075
      pz      :     0.007074  p :     0.023658
      px      :     0.010529
      py      :     0.006056
 10 H s       :     0.832068  s :     0.832068
      pz      :     0.013830  p :     0.023677
      px      :     0.005125
      py      :     0.004722
 11 H s       :     0.832070  s :     0.832070
      pz      :     0.005898  p :     0.023677
      px      :     0.011535
      py      :     0.006244
 12 H s       :     0.812101  s :     0.812101
      pz      :     0.004936  p :     0.024617
      px      :     0.003825
      py      :     0.015856
 13 H s       :     0.813358  s :     0.813358
      pz      :     0.007553  p :     0.025778
      px      :     0.011163
      py      :     0.007062


                     *******************************
                     * LOEWDIN POPULATION ANALYSIS *
                     *******************************

----------------------
LOEWDIN ATOMIC CHARGES
----------------------
   0 C :   -0.323262
   1 N :    0.108901
   2 C :   -0.329349
   3 O :    0.317715
   4 C :   -0.572402
   5 O :    0.161233
   6 O :    0.311625
   7 C :   -0.199622
   8 C :   -0.153277
   9 H :    0.113776
  10 H :    0.124229
  11 H :    0.124233
  12 H :    0.148158
  13 H :    0.168042

-------------------------------
LOEWDIN REDUCED ORBITAL CHARGES
-------------------------------
  0 C s       :     2.841274  s :     2.841274
      pz      :     1.083484  p :     3.078975
      px      :     1.088208
      py      :     0.907284
      dz2     :     0.066922  d :     0.358137
      dxz     :     0.027002
      dyz     :     0.078148
      dx2y2   :     0.072252
      dxy     :     0.113812
      f0      :     0.006597  f :     0.044876
      f+1     :     0.001382
      f-1     :     0.006018
      f+2     :     0.007697
      f-2     :     0.004144
      f+3     :     0.010147
      f-3     :     0.008891
  1 N s       :     3.045767  s :     3.045767
      pz      :     1.149754  p :     3.589600
      px      :     1.275325
      py      :     1.164521
      dz2     :     0.036256  d :     0.233973
      dxz     :     0.029339
      dyz     :     0.053062
      dx2y2   :     0.055832
      dxy     :     0.059484
      f0      :     0.002400  f :     0.021759
      f+1     :     0.002424
      f-1     :     0.002434
      f+2     :     0.003631
      f-2     :     0.003320
      f+3     :     0.004079
      f-3     :     0.003469
  2 C s       :     2.728016  s :     2.728016
      pz      :     0.859301  p :     2.672356
      px      :     0.841872
      py      :     0.971183
      dz2     :     0.129500  d :     0.811187
      dxz     :     0.144653
      dyz     :     0.139445
      dx2y2   :     0.216288
      dxy     :     0.181300
      f0      :     0.010823  f :     0.117789
      f+1     :     0.013313
      f-1     :     0.012104
      f+2     :     0.020929
      f-2     :     0.017198
      f+3     :     0.024931
      f-3     :     0.018491
  3 O s       :     3.239071  s :     3.239071
      pz      :     1.431606  p :     4.299477
      px      :     1.340045
      py      :     1.527827
      dz2     :     0.020474  d :     0.134197
      dxz     :     0.033275
      dyz     :     0.022885
      dx2y2   :     0.024594
      dxy     :     0.032969
      f0      :     0.001178  f :     0.009539
      f+1     :     0.001522
      f-1     :     0.000887
      f+2     :     0.001542
      f-2     :     0.001640
      f+3     :     0.001530
      f-3     :     0.001241
  4 C s       :     2.729292  s :     2.729292
      pz      :     0.822358  p :     2.554187
      px      :     0.875628
      py      :     0.856201
      dz2     :     0.172601  d :     1.089458
      dxz     :     0.164344
      dyz     :     0.198317
      dx2y2   :     0.295507
      dxy     :     0.258689
      f0      :     0.017276  f :     0.199465
      f+1     :     0.020478
      f-1     :     0.022476
      f+2     :     0.036503
      f-2     :     0.023041
      f+3     :     0.049789
      f-3     :     0.029902
  5 O s       :     3.395008  s :     3.395008
      pz      :     1.375747  p :     4.336734
      px      :     1.423842
      py      :     1.537145
      dz2     :     0.015227  d :     0.097211
      dxz     :     0.022579
      dyz     :     0.015478
      dx2y2   :     0.019562
      dxy     :     0.024365
      f0      :     0.001048  f :     0.009814
      f+1     :     0.001378
      f-1     :     0.000829
      f+2     :     0.001253
      f-2     :     0.002058
      f+3     :     0.001449
      f-3     :     0.001800
  6 O s       :     3.236984  s :     3.236984
      pz      :     1.518356  p :     4.299608
      px      :     1.460263
      py      :     1.320989
      dz2     :     0.021855  d :     0.141649
      dxz     :     0.019603
      dyz     :     0.025388
      dx2y2   :     0.042667
      dxy     :     0.032137
      f0      :     0.000958  f :     0.010134
      f+1     :     0.001125
      f-1     :     0.001273
      f+2     :     0.001705
      f-2     :     0.001183
      f+3     :     0.002088
      f-3     :     0.001801
  7 C s       :     2.787713  s :     2.787713
      pz      :     0.919566  p :     2.776288
      px      :     0.901018
      py      :     0.955704
      dz2     :     0.103984  d :     0.551274
      dxz     :     0.113264
      dyz     :     0.070100
      dx2y2   :     0.166668
      dxy     :     0.097258
      f0      :     0.007176  f :     0.084347
      f+1     :     0.010928
      f-1     :     0.009506
      f+2     :     0.013646
      f-2     :     0.014619
      f+3     :     0.015071
      f-3     :     0.013400
  8 C s       :     2.768961  s :     2.768961
      pz      :     0.969631  p :     2.955637
      px      :     0.994822
      py      :     0.991185
      dz2     :     0.051176  d :     0.380073
      dxz     :     0.050733
      dyz     :     0.084427
      dx2y2   :     0.091028
      dxy     :     0.102709
      f0      :     0.005427  f :     0.048606
      f+1     :     0.005443
      f-1     :     0.005372
      f+2     :     0.008819
      f-2     :     0.006351
      f+3     :     0.009666
      f-3     :     0.007528
  9 H s       :     0.817972  s :     0.817972
      pz      :     0.020868  p :     0.068251
      px      :     0.031221
      py      :     0.016162
 10 H s       :     0.810579  s :     0.810579
      pz      :     0.038865  p :     0.065192
      px      :     0.014611
      py      :     0.011716
 11 H s       :     0.810575  s :     0.810575
      pz      :     0.016870  p :     0.065192
      px      :     0.032833
      py      :     0.015489
 12 H s       :     0.786969  s :     0.786969
      pz      :     0.013158  p :     0.064873
      px      :     0.010320
      py      :     0.041395
 13 H s       :     0.765503  s :     0.765503
      pz      :     0.019561  p :     0.066455
      px      :     0.028232
      py      :     0.018662


                      *****************************
                      * MAYER POPULATION ANALYSIS *
                      *****************************

  NA   - Mulliken gross atomic population
  ZA   - Total nuclear charge
  QA   - Mulliken gross atomic charge
  VA   - Mayer's total valence
  BVA  - Mayer's bonded valence
  FA   - Mayer's free valence

  ATOM       NA         ZA         QA         VA         BVA        FA
  0 C      6.2788     6.0000    -0.2788     3.9732     3.6849     0.2883
  1 N      7.2152     7.0000    -0.2152     3.2731     2.8333     0.4398
  2 C      5.7722     6.0000     0.2278     4.3059     3.9567     0.3493
  3 O      8.2197     8.0000    -0.2197     2.4200     2.0043     0.4157
  4 C      5.6461     6.0000     0.3539     4.6020     4.2760     0.3260
  5 O      8.2548     8.0000    -0.2548     2.5250     2.1018     0.4232
  6 O      8.2043     8.0000    -0.2043     2.4339     2.0288     0.4051
  7 C      5.9259     6.0000     0.0741     4.0073     3.6702     0.3372
  8 C      6.2398     6.0000    -0.2398     3.9905     3.6313     0.3592
  9 H      0.8557     1.0000     0.1443     0.9752     0.9267     0.0486
 10 H      0.8557     1.0000     0.1443     0.9671     0.9188     0.0483
 11 H      0.8557     1.0000     0.1443     0.9671     0.9188     0.0483
 12 H      0.8367     1.0000     0.1633     0.9720     0.9276     0.0444
 13 H      0.8391     1.0000     0.1609     0.9910     0.9450     0.0460

  Mayer bond orders larger than 0.1
B(  0-C ,  1-N ) :   0.8535 B(  0-C ,  9-H ) :   0.9280 B(  0-C , 10-H ) :   0.9304 
B(  0-C , 11-H ) :   0.9304 B(  1-N ,  2-C ) :   1.9522 B(  2-C ,  3-O ) :   0.8947 
B(  2-C ,  8-C ) :   1.0294 B(  3-O ,  4-C ) :   1.1003 B(  4-C ,  5-O ) :   2.0814 
B(  4-C ,  6-O ) :   1.0342 B(  6-O ,  7-C ) :   0.9765 B(  7-C ,  8-C ) :   1.6831 
B(  7-C , 12-H ) :   0.9343 B(  8-C , 13-H ) :   0.9080 


-------
TIMINGS
-------

Total time                :  672.070 sec
Integral trafo            :    4.457 sec (  0.7%)
FC preparation            :    2.591 sec (  0.4%)
I/O of integrals          :    0.042 sec (  0.0%)
K(i,j) Operators          :    6.311 sec (  0.9%)
T(i,j) pair energies      :    0.606 sec (  0.1%)
V-calculation             :    0.015 sec (  0.0%)
V**(-1/2)                 :    0.089 sec (  0.0%)
Gamma(ia|P)               :    6.167 sec (  0.9%)
Gamma-Trafo               :    1.050 sec (  0.2%)
D(virtual)                :    2.324 sec (  0.3%)
D(internal)               :    2.202 sec (  0.3%)
W(virtual)                :    0.000 sec (  0.0%)
W(internal)               :    0.000 sec (  0.0%)
L(virtual)                :    7.094 sec (  1.1%)
L(internal)               :    0.148 sec (  0.0%)
G(D)                      :   69.142 sec ( 10.3%)
G(Z)                      :    0.000 sec (  0.0%)
Z-Vector Solution         :  569.273 sec ( 84.7%)
3-Index Derivative        :    0.000 sec (  0.0%)
2-Index Derivative        :    0.000 sec (  0.0%)
Separable Gradient (RIJ)  :    0.000 sec (  0.0%)
Separable Gradient (X)    :    0.000 sec (  0.0%)


---------------------------------------
MP2 TOTAL ENERGY:     -473.105545069 Eh
---------------------------------------

-------------------------   --------------------
FINAL SINGLE POINT ENERGY      -473.105545068891
-------------------------   --------------------


                            ***************************************
                            *     ORCA property calculations      *
                            ***************************************

                                    ---------------------
                                    Active property flags
                                    ---------------------
   (+) Dipole Moment


------------------------------------------------------------------------------
                       ORCA ELECTRIC PROPERTIES CALCULATION
------------------------------------------------------------------------------

Dipole Moment Calculation                       ... on
Quadrupole Moment Calculation                   ... off
Polarizability Calculation                      ... off
GBWName                                         ... dsgdb9nsd_030419.gbw
Electron density file                           ... dsgdb9nsd_030419.scfp.tmp

-------------
DIPOLE MOMENT
-------------
                                X             Y             Z
Electronic contribution:      4.83765      -3.46783       4.11762
Nuclear contribution   :     -5.69939       2.52707      -4.57576
                        -----------------------------------------
Total Dipole Moment    :     -0.86174      -0.94076      -0.45814
                        -----------------------------------------
Magnitude (a.u.)       :      1.35555
Magnitude (Debye)      :      3.44553


                         *** MP2 UNRELAXED DENSITY ***

------------------------------------------------------------------------------
                       ORCA ELECTRIC PROPERTIES CALCULATION
------------------------------------------------------------------------------

Dipole Moment Calculation                       ... on
Quadrupole Moment Calculation                   ... off
Polarizability Calculation                      ... off
GBWName                                         ... dsgdb9nsd_030419.gbw
Electron density file                           ... dsgdb9nsd_030419.pmp2ur

-------------
DIPOLE MOMENT
-------------
                                X             Y             Z
Electronic contribution:      4.86124      -3.42338       4.12687
Nuclear contribution   :     -5.69939       2.52707      -4.57576
                        -----------------------------------------
Total Dipole Moment    :     -0.83815      -0.89631      -0.44889
                        -----------------------------------------
Magnitude (a.u.)       :      1.30666
Magnitude (Debye)      :      3.32127


                           *** MP2 RELAXED DENSITY ***

------------------------------------------------------------------------------
                       ORCA ELECTRIC PROPERTIES CALCULATION
------------------------------------------------------------------------------

Dipole Moment Calculation                       ... on
Quadrupole Moment Calculation                   ... off
Polarizability Calculation                      ... off
GBWName                                         ... dsgdb9nsd_030419.gbw
Electron density file                           ... dsgdb9nsd_030419.pmp2re

-------------
DIPOLE MOMENT
-------------
                                X             Y             Z
Electronic contribution:      4.93101      -3.27626       4.15142
Nuclear contribution   :     -5.69939       2.52707      -4.57576
                        -----------------------------------------
Total Dipole Moment    :     -0.76838      -0.74918      -0.42434
                        -----------------------------------------
Magnitude (a.u.)       :      1.15401
Magnitude (Debye)      :      2.93326


Timings for individual modules:

Sum of individual times         ...      791.730 sec (=  13.196 min)
GTO integral calculation        ...        0.458 sec (=   0.008 min)   0.1 %
SCF iterations                  ...      119.052 sec (=   1.984 min)  15.0 %
MP2 module                      ...      672.220 sec (=  11.204 min)  84.9 %
                             ****ORCA TERMINATED NORMALLY****
TOTAL RUN TIME: 0 days 0 hours 13 minutes 12 seconds 180 msec
