
                                 *****************
                                 * O   R   C   A *
                                 *****************

           --- An Ab Initio, DFT and Semiempirical electronic structure package ---

                  #######################################################
                  #                        -***-                        #
                  #  Department of molecular theory and spectroscopy    #
                  #              Directorship: Frank Neese              #
                  # Max Planck Institute for Chemical Energy Conversion #
                  #                  D-45470 Muelheim/Ruhr              #
                  #                       Germany                       #
                  #                                                     #
                  #                  All rights reserved                #
                  #                        -***-                        #
                  #######################################################


                         Program Version 3.0.3 - RELEASE   -


 With contributions from (in alphabetic order):
   Ute Becker             : Parallelization
   Dmytro Bykov           : SCF Hessian
   Dmitry Ganyushin       : Spin-Orbit,Spin-Spin,Magnetic field MRCI
   Andreas Hansen         : Spin unrestricted coupled pair/coupled cluster methods
   Dimitrios Liakos       : Extrapolation schemes; parallel MDCI
   Robert Izsak           : Overlap fitted RIJCOSX, COSX-SCS-MP3
   Christian Kollmar      : KDIIS, OOCD, Brueckner-CCSD(T), CCSD density
   Simone Kossmann        : Meta GGA functionals, TD-DFT gradient, OOMP2, MP2 Hessian
   Taras Petrenko         : DFT Hessian,TD-DFT gradient, ASA and ECA modules, normal mode analysis, Resonance Raman, ABS, FL, XAS/XES, NRVS
   Christoph Reimann      : Effective Core Potentials
   Michael Roemelt        : Restricted open shell CIS
   Christoph Riplinger    : Improved optimizer, TS searches, QM/MM, DLPNO-CCSD
   Barbara Sandhoefer     : DKH picture change effects
   Igor Schapiro          : Molecular dynamics
   Kantharuban Sivalingam : CASSCF convergence, NEVPT2
   Boris Wezisla          : Elementary symmetry handling
   Frank Wennmohs         : Technical directorship


 We gratefully acknowledge several colleagues who have allowed us to
 interface, adapt or use parts of their codes:
   Stefan Grimme, W. Hujo, H. Kruse, T. Risthaus : VdW corrections, initial TS optimization,
                                                   DFT functionals, gCP
   Ed Valeev                                     : LibInt (2-el integral package), F12 methods
   Garnet Chan, S. Sharma, R. Olivares           : DMRG
   Ulf Ekstrom                                   : XCFun DFT Library
   Mihaly Kallay                                 : mrcc  (arbitrary order and MRCC methods)
   Andreas Klamt, Michael Diedenhofen            : otool_cosmo (COSMO solvation model)
   Frank Weinhold                                : gennbo (NPA and NBO analysis)
   Christopher J. Cramer and Donald G. Truhlar   : smd solvation model


 Your calculation uses the libint2 library for the computation of 2-el integrals
 For citations please refer to: http://libint.valeyev.net

 This ORCA versions uses:
   CBLAS   interface :  Fast vector & matrix operations
   LAPACKE interface :  Fast linear algebra routines
   SCALAPACK package :  Parallel linear algebra routines


Your calculation utilizes the basis: Ahlrichs-TZV
Cite in your paper:
H - Kr: A. Schaefer, H. Horn and R. Ahlrichs, J. Chem. Phys. 97, 2571 (1992).

The def2-TZV basis will be loaded
Cite in your paper:
 	F. Weigend, R. Ahlrichs, Phys. Chem. Chem. Phys. 2005, 7, 3297.

================================================================================
                                        WARNINGS
                       Please study these warnings very carefully!
================================================================================
Now building the actual basis set


INFO   : the flag for use of LIBINT has been found!

================================================================================
                                       INPUT FILE
================================================================================
NAME = dsgdb9nsd_042486.inp
|  1> ! RI-MP2 RIJK def2-TZVP def2-TZVP/C def2-TZVP/JK TIGHTSCF
|  2> % maxcore 2000
|  3> % mp2 density relaxed end
|  4> *xyz 0 1
|  5>  O       -0.0491008536    -0.0995178661     0.1798648175 
|  6>  C        0.0437545946     1.0827071054    -0.0068789993 
|  7>  O        1.1620623561     1.8052131160    -0.0149777300 
|  8>  C        2.3825370651     1.0613832740     0.2300757978 
|  9>  C        3.5166656305     2.0408389543     0.1970788541 
| 10>  C        4.8606310499     1.6054682048    -0.2024532023 
| 11>  O        4.0400508532     2.3648286899    -1.0879698986 
| 12>  C       -1.1154782398     1.9467150118    -0.2624959067 
| 13>  N       -2.0626076367     2.5782659223    -0.4555961365 
| 14>  H        2.3016598815     0.5687020162     1.2041959780 
| 15>  H        2.4974596342     0.2980254490    -0.5436001288 
| 16>  H        3.4185721310     2.8880847003     0.8755514118 
| 17>  H        5.7286059228     2.1233009469     0.2009762898 
| 18>  H        5.0300259110     0.5695694852    -0.4935741567 
| 19> *
| 20> 
| 21>                          ****END OF INPUT****
================================================================================

                       ****************************
                       * Single Point Calculation *
                       ****************************

---------------------------------
CARTESIAN COORDINATES (ANGSTROEM)
---------------------------------
  O     -0.049101   -0.099518    0.179865
  C      0.043755    1.082707   -0.006879
  O      1.162062    1.805213   -0.014978
  C      2.382537    1.061383    0.230076
  C      3.516666    2.040839    0.197079
  C      4.860631    1.605468   -0.202453
  O      4.040051    2.364829   -1.087970
  C     -1.115478    1.946715   -0.262496
  N     -2.062608    2.578266   -0.455596
  H      2.301660    0.568702    1.204196
  H      2.497460    0.298025   -0.543600
  H      3.418572    2.888085    0.875551
  H      5.728606    2.123301    0.200976
  H      5.030026    0.569569   -0.493574

----------------------------
CARTESIAN COORDINATES (A.U.)
----------------------------
  NO LB      ZA    FRAG    MASS        X           Y           Z
   0 O     8.0000    0    15.999         -0.092787166245761         -0.188061512361246          0.339895246202726
   1 C     6.0000    0    12.011          0.082684200894750          2.046019912456611         -0.012999424752436
   2 O     8.0000    0    15.999          2.195979603568274          3.411358402602616         -0.028303807807816
   3 C     6.0000    0    12.011          4.502342556955509          2.005723710984701          0.434780247885442
   4 C     6.0000    0    12.011          6.645534946218506          3.856626707065228          0.372425061036023
   5 C     6.0000    0    12.011          9.185261522345122          3.033895223790196         -0.382581107282356
   6 O     8.0000    0    15.999          7.634589679662890          4.468878577550785         -2.055965150304074
   7 C     6.0000    0    12.011         -2.107948381570537          3.678758233095278         -0.496045374938345
   8 N     7.0000    0    14.007         -3.897763555097541          4.872216493568889         -0.860951925657604
   9 H     1.0000    0     1.008          4.349506829468641          1.074691062426847          2.275600609989461
  10 H     1.0000    0     1.008          4.719514739161149          0.563186479548915         -1.027255369796318
  11 H     1.0000    0     1.008          6.460165096645564          5.457689135135036          1.654552384470108
  12 H     1.0000    0     1.008         10.825496323251228          4.012457289536671          0.379790147133591
  13 H     1.0000    0     1.008          9.505371418317752          1.076330341266514         -0.932719982944133

--------------------------------
INTERNAL COORDINATES (ANGSTROEM)
--------------------------------
 O      0   0   0   0.000000     0.000     0.000
 C      1   0   0   1.200480     0.000     0.000
 O      2   1   0   1.331425   126.893     0.000
 C      3   2   1   1.450135   115.311     0.000
 C      4   3   2   1.498890   107.332   180.633
 C      5   4   3   1.468134   120.322   208.205
 O      5   4   3   1.424869   116.511   276.241
 C      2   1   3   1.468220   123.061   180.156
 N      8   2   1   1.154642   177.015     3.213
 H      4   3   2   1.094617   108.607   301.538
 H      4   3   2   1.092930   109.095    60.068
 H      5   4   3   1.089850   115.226    54.922
 H      6   5   4   1.088249   119.218   208.856
 H      6   5   4   1.089281   119.809     1.110

---------------------------
INTERNAL COORDINATES (A.U.)
---------------------------
 O      0   0   0   0.000000     0.000     0.000
 C      1   0   0   2.268578     0.000     0.000
 O      2   1   0   2.516029   126.893     0.000
 C      3   2   1   2.740359   115.311     0.000
 C      4   3   2   2.832491   107.332   180.633
 C      5   4   3   2.774371   120.322   208.205
 O      5   4   3   2.692612   116.511   276.241
 C      2   1   3   2.774534   123.061   180.156
 N      8   2   1   2.181957   177.015     3.213
 H      4   3   2   2.068526   108.607   301.538
 H      4   3   2   2.065339   109.095    60.068
 H      5   4   3   2.059518   115.226    54.922
 H      6   5   4   2.056493   119.218   208.856
 H      6   5   4   2.058442   119.809     1.110

---------------------
BASIS SET INFORMATION
---------------------
There are 4 groups of distinct atoms

 Group   1 Type O   : 11s6p2d1f contracted to 5s3p2d1f pattern {62111/411/11/1}
 Group   2 Type C   : 11s6p2d1f contracted to 5s3p2d1f pattern {62111/411/11/1}
 Group   3 Type N   : 11s6p2d1f contracted to 5s3p2d1f pattern {62111/411/11/1}
 Group   4 Type H   : 5s1p contracted to 3s1p pattern {311/1}

Atom   0O    basis set group =>   1
Atom   1C    basis set group =>   2
Atom   2O    basis set group =>   1
Atom   3C    basis set group =>   2
Atom   4C    basis set group =>   2
Atom   5C    basis set group =>   2
Atom   6O    basis set group =>   1
Atom   7C    basis set group =>   2
Atom   8N    basis set group =>   3
Atom   9H    basis set group =>   4
Atom  10H    basis set group =>   4
Atom  11H    basis set group =>   4
Atom  12H    basis set group =>   4
Atom  13H    basis set group =>   4
-------------------------------
AUXILIARY BASIS SET INFORMATION
-------------------------------
There are 4 groups of distinct atoms

 Group   1 Type O   : 14s10p6d2f1g contracted to 10s8p4d2f1g pattern {5111111111/31111111/3111/11/1}
 Group   2 Type C   : 14s10p6d2f1g contracted to 10s8p5d1f1g pattern {5111111111/31111111/21111/2/1}
 Group   3 Type N   : 14s10p6d2f1g contracted to 10s8p4d2f1g pattern {5111111111/31111111/3111/11/1}
 Group   4 Type H   : 4s2p2d contracted to 2s2p2d pattern {31/11/11}

Atom   0O    basis set group =>   1
Atom   1C    basis set group =>   2
Atom   2O    basis set group =>   1
Atom   3C    basis set group =>   2
Atom   4C    basis set group =>   2
Atom   5C    basis set group =>   2
Atom   6O    basis set group =>   1
Atom   7C    basis set group =>   2
Atom   8N    basis set group =>   3
Atom   9H    basis set group =>   4
Atom  10H    basis set group =>   4
Atom  11H    basis set group =>   4
Atom  12H    basis set group =>   4
Atom  13H    basis set group =>   4
------------------------------------------------------------------------------
                           ORCA GTO INTEGRAL CALCULATION
                           -- RI-GTO INTEGRALS CHOSEN --
------------------------------------------------------------------------------

                         BASIS SET STATISTICS AND STARTUP INFO

Gaussian basis set:
 # of primitive gaussian shells          ...  210
 # of primitive gaussian functions       ...  454
 # of contracted shells                  ...  119
 # of contracted basis functions         ...  309
 Highest angular momentum                ...    3
 Maximum contraction depth               ...    6
Auxiliary gaussian basis set:
 # of primitive gaussian shells          ...  337
 # of primitive gaussian functions       ...  973
 # of contracted shells                  ...  255
 # of contracted aux-basis functions     ...  773
 Highest angular momentum                ...    4
 Maximum contraction depth               ...    5
Ratio of auxiliary to basis functions    ...  2.50
Integral package used                  ... LIBINT
 One Electron integrals                  ... done
 Ordering auxiliary basis shells         ... done
 Integral threshhold             Thresh  ...  2.500e-11
 Primitive cut-off               TCut    ...  2.500e-12
 Pre-screening matrix                    ... done
 Shell pair data                         ... 
 Ordering of the shell pairs             ... done (   0.001 sec) 6095 of 7140 pairs
 Determination of significant pairs      ... done (   0.000 sec)
 Creation of shell pair data             ... done (   0.001 sec)
 Storage of shell pair data              ... done (   0.001 sec)
 Shell pair data done in (   0.004 sec)
 Computing two index integrals           ... done
 Cholesky decomposition of the V-matrix  ... done


Timings:
 Total evaluation time                   ...   0.335 sec (  0.006 min)
 One electron matrix time                ...   0.057 sec (  0.001 min) = 17.1%
 Schwartz matrix evaluation time         ...   0.203 sec (  0.003 min) = 60.5%
 Two index repulsion integral time       ...   0.017 sec (  0.000 min) =  5.2%
 Cholesky decomposition of V             ...   0.026 sec (  0.000 min) =  7.8%
 Three index repulsion integral time     ...   0.000 sec (  0.000 min) =  0.0%

-------------------------------------------------------------------------------
                                 ORCA SCF
-------------------------------------------------------------------------------

------------
SCF SETTINGS
------------
Hamiltonian:
 Ab initio Hamiltonian  Method          .... Hartree-Fock(GTOs)
 RI-approximation to the Coulomb term is turned on
   Number of auxiliary basis functions  .... 773
   RI-JK (J+K treated both via RI)      .... on


General Settings:
 Integral files         IntName         .... dsgdb9nsd_042486
 Hartree-Fock type      HFTyp           .... RHF
 Total Charge           Charge          ....    0
 Multiplicity           Mult            ....    1
 Number of Electrons    NEL             ....   66
 Basis Dimension        Dim             ....  309
 Nuclear Repulsion      ENuc            ....    406.7905514105 Eh

Convergence Acceleration:
 DIIS                   CNVDIIS         .... on
   Start iteration      DIISMaxIt       ....    12
   Startup error        DIISStart       ....  0.200000
   # of expansion vecs  DIISMaxEq       ....     5
   Bias factor          DIISBfac        ....   1.050
   Max. coefficient     DIISMaxC        ....  10.000
 Newton-Raphson         CNVNR           .... off
 SOSCF                  CNVSOSCF        .... on
   Start iteration      SOSCFMaxIt      ....   150
   Startup grad/error   SOSCFStart      ....  0.003300
 Level Shifting         CNVShift        .... on
   Level shift para.    LevelShift      ....    0.2500
   Turn off err/grad.   ShiftErr        ....    0.0010
 Zerner damping         CNVZerner       .... off
 Static damping         CNVDamp         .... on
   Fraction old density DampFac         ....    0.7000
   Max. Damping (<1)    DampMax         ....    0.9800
   Min. Damping (>=0)   DampMin         ....    0.0000
   Turn off err/grad.   DampErr         ....    0.1000
 Fernandez-Rico         CNVRico         .... off

SCF Procedure:
 Maximum # iterations   MaxIter         ....   125
 SCF integral mode      SCFMode         .... Direct
   Integral package                     .... LIBINT
 Reset frequeny         DirectResetFreq ....    20
 Integral Threshold     Thresh          ....  2.500e-11 Eh
 Primitive CutOff       TCut            ....  2.500e-12 Eh

Convergence Tolerance:
 Convergence Check Mode ConvCheckMode   .... Total+1el-Energy
 Energy Change          TolE            ....  1.000e-08 Eh
 1-El. energy change                    ....  1.000e-05 Eh
 Orbital Gradient       TolG            ....  1.000e-05
 Orbital Rotation angle TolX            ....  1.000e-05
 DIIS Error             TolErr          ....  5.000e-07


Diagonalization of the overlap matrix:
Smallest eigenvalue                        ... 1.053e-04
Time for diagonalization                   ...    0.027 sec
Threshold for overlap eigenvalues          ... 1.000e-08
Number of eigenvalues below threshold      ... 0
Time for construction of square roots      ...    0.013 sec
Total time needed                          ...    0.040 sec

-------------------
DFT GRID GENERATION
-------------------

General Integration Accuracy     IntAcc      ...  4.340
Radial Grid Type                 RadialGrid  ... Gauss-Chebyshev
Angular Grid (max. acc.)         AngularGrid ... Lebedev-110
Angular grid pruning method      GridPruning ... 3 (G Style)
Weight generation scheme         WeightScheme... Becke
Basis function cutoff            BFCut       ...    1.0000e-11
Integration weight cutoff        WCut        ...    1.0000e-14
Grids for H and He will be reduced by one unit

# of grid points (after initial pruning)     ...  19100 (   0.0 sec)
# of grid points (after weights+screening)   ...  17996 (   0.1 sec)
nearest neighbour list constructed           ...    0.0 sec
Grid point re-assignment to atoms done       ...    0.0 sec
Grid point division into batches done        ...    0.0 sec
Reduced shell lists constructed in    1.0 sec

Total number of grid points                  ...    17996
Total number of batches                      ...      287
Average number of points per batch           ...       62
Average number of grid points per atom       ...     1285
Average number of shells per batch           ...    73.00 (61.35%)
Average number of basis functions per batch  ...   190.57 (61.67%)
Average number of large shells per batch     ...    56.34 (77.17%)
Average number of large basis fcns per batch ...   146.23 (76.73%)
Average number of aux-shells per batch       ...    73.00 (28.63%)
Average number of aux functions per batch    ...   190.57 (  inf%)
Maximum spatial batch extension              ...  21.01, 18.30, 25.12 au
Average spatial batch extension              ...   3.75,  3.86,  4.30 au

Time for grid setup =    1.029 sec

------------------------------
INITIAL GUESS: MODEL POTENTIAL
------------------------------
Loading Hartree-Fock densities                     ... done
Calculating cut-offs                               ... done
Setting up the integral package                    ... done
Initializing the effective Hamiltonian             ... done
Starting the Coulomb interaction                   ... done (   0.4 sec)
Reading the grid                                   ... done
Mapping shells                                     ... done
Starting the XC term evaluation                    ... done (   0.4 sec)
Transforming the Hamiltonian                       ... done (   0.0 sec)
Diagonalizing the Hamiltonian                      ... done (   0.0 sec)
Back transforming the eigenvectors                 ... done (   0.0 sec)
Now organizing SCF variables                       ... done
                      ------------------
                      INITIAL GUESS DONE (   2.1 sec)
                      ------------------
--------------
SCF ITERATIONS
--------------
ITER       Energy         Delta-E        Max-DP      RMS-DP      [F,P]     Damp
  0   -471.0649079165   0.000000000000 0.04152381  0.00079938  0.3020285 0.7000
  1   -470.9113645585   0.153543358089 0.04220434  0.00079855  0.2994050 0.7000
                               ***Turning on DIIS***
  2   -470.9460642035  -0.034699645031 0.02828141  0.00054621  0.1883882 0.7000
  3   -471.4576509764  -0.511586772945 0.01579625  0.00032066  0.1337972 0.7000
  4   -471.1953854970   0.262265479452 0.04379576  0.00084832  0.0862473 0.0000
  5   -471.3410605773  -0.145675080268 0.01780116  0.00026829  0.0316971 0.0000
  6   -471.3293425108   0.011718066462 0.00819731  0.00010286  0.0096565 0.0000
  7   -471.3635807898  -0.034238279058 0.00251070  0.00004856  0.0078020 0.0000
  8   -471.3796936077  -0.016112817834 0.00213484  0.00003892  0.0056062 0.0000
                      *** Initiating the SOSCF procedure ***
                           *** Shutting down DIIS ***
                      *** Re-Reading the Fockian *** 
                      *** Removing any level shift *** 
ITER      Energy       Delta-E        Grad      Rot      Max-DP    RMS-DP
  9   -471.40694725  -0.0272536465  0.000366  0.000366  0.000705  0.000011
 10   -471.40739136  -0.0004441063  0.000218  0.000375  0.000267  0.000006
 11   -471.40739281  -0.0000014467  0.000152  0.000504  0.000495  0.000009
 12   -471.40739354  -0.0000007316  0.000030  0.000043  0.000133  0.000002
 13   -471.40739361  -0.0000000733  0.000028  0.000075  0.000078  0.000001
 14   -471.40739363  -0.0000000184  0.000009  0.000038  0.000021  0.000000
 15   -471.40739364  -0.0000000045  0.000004  0.000016  0.000012  0.000000
                  ***Gradient check signals convergence***
              ***Rediagonalizing the Fockian in SOSCF/NRSCF***

               *****************************************************
               *                     SUCCESS                       *
               *           SCF CONVERGED AFTER  16 CYCLES          *
               *****************************************************


----------------
TOTAL SCF ENERGY
----------------

Total Energy       :         -471.40739364 Eh          -12827.64733 eV

Components:
Nuclear Repulsion  :          406.79055141 Eh           11069.33366 eV
Electronic Energy  :         -878.19794505 Eh          -23896.98098 eV

One Electron Energy:        -1450.01972258 Eh          -39457.04261 eV
Two Electron Energy:          571.82177753 Eh           15560.06162 eV

Virial components:
Potential Energy   :         -942.08248097 Eh          -25635.36758 eV
Kinetic Energy     :          470.67508733 Eh           12807.72026 eV
Virial Ratio       :            2.00155586


---------------
SCF CONVERGENCE
---------------

  Last Energy change         ...   -1.1037e-09  Tolerance :   1.0000e-08
  Last MAX-Density change    ...    5.8142e-06  Tolerance :   1.0000e-07
  Last RMS-Density change    ...    1.2121e-07  Tolerance :   5.0000e-09
  Last Orbital Gradient      ...    2.1486e-06  Tolerance :   1.0000e-05
  Last Orbital Rotation      ...    5.9494e-06  Tolerance :   1.0000e-05

             **** THE GBW FILE WAS UPDATED (dsgdb9nsd_042486.gbw) ****
             **** DENSITY FILE WAS UPDATED (dsgdb9nsd_042486.scfp.tmp) ****
             **** ENERGY FILE WAS UPDATED (dsgdb9nsd_042486.en.tmp) ****
----------------
ORBITAL ENERGIES
----------------

  NO   OCC          E(Eh)            E(eV) 
   0   2.0000     -20.651487      -561.9555 
   1   2.0000     -20.599630      -560.5444 
   2   2.0000     -20.594156      -560.3955 
   3   2.0000     -15.617583      -424.9760 
   4   2.0000     -11.454108      -311.6821 
   5   2.0000     -11.329845      -308.3008 
   6   2.0000     -11.317322      -307.9600 
   7   2.0000     -11.310326      -307.7696 
   8   2.0000     -11.307271      -307.6865 
   9   2.0000      -1.515075       -41.2273 
  10   2.0000      -1.440793       -39.2060 
  11   2.0000      -1.415510       -38.5180 
  12   2.0000      -1.253054       -34.0973 
  13   2.0000      -1.071583       -29.1593 
  14   2.0000      -0.962623       -26.1943 
  15   2.0000      -0.918345       -24.9894 
  16   2.0000      -0.847655       -23.0659 
  17   2.0000      -0.798505       -21.7284 
  18   2.0000      -0.744424       -20.2568 
  19   2.0000      -0.725886       -19.7524 
  20   2.0000      -0.702835       -19.1251 
  21   2.0000      -0.679438       -18.4884 
  22   2.0000      -0.619251       -16.8507 
  23   2.0000      -0.612691       -16.6722 
  24   2.0000      -0.594325       -16.1724 
  25   2.0000      -0.562525       -15.3071 
  26   2.0000      -0.556404       -15.1405 
  27   2.0000      -0.530572       -14.4376 
  28   2.0000      -0.510235       -13.8842 
  29   2.0000      -0.498626       -13.5683 
  30   2.0000      -0.498342       -13.5606 
  31   2.0000      -0.476560       -12.9678 
  32   2.0000      -0.471111       -12.8196 
  33   0.0000       0.071627         1.9491 
  34   0.0000       0.132801         3.6137 
  35   0.0000       0.148726         4.0470 
  36   0.0000       0.157195         4.2775 
  37   0.0000       0.166798         4.5388 
  38   0.0000       0.169700         4.6178 
  39   0.0000       0.186128         5.0648 
  40   0.0000       0.206299         5.6137 
  41   0.0000       0.215218         5.8564 
  42   0.0000       0.224547         6.1102 
  43   0.0000       0.239434         6.5153 
  44   0.0000       0.278518         7.5789 
  45   0.0000       0.281396         7.6572 
  46   0.0000       0.295523         8.0416 
  47   0.0000       0.308795         8.4027 
  48   0.0000       0.316540         8.6135 
  49   0.0000       0.346857         9.4385 
  50   0.0000       0.355100         9.6628 
  51   0.0000       0.363198         9.8831 
  52   0.0000       0.375530        10.2187 
  53   0.0000       0.388383        10.5684 
  54   0.0000       0.402359        10.9487 
  55   0.0000       0.417547        11.3620 
  56   0.0000       0.443745        12.0749 
  57   0.0000       0.470563        12.8047 
  58   0.0000       0.487200        13.2574 
  59   0.0000       0.489122        13.3097 
  60   0.0000       0.500757        13.6263 
  61   0.0000       0.506112        13.7720 
  62   0.0000       0.518422        14.1070 
  63   0.0000       0.533832        14.5263 
  64   0.0000       0.545814        14.8524 
  65   0.0000       0.554712        15.0945 
  66   0.0000       0.573384        15.6026 
  67   0.0000       0.584551        15.9065 
  68   0.0000       0.588672        16.0186 
  69   0.0000       0.604966        16.4620 
  70   0.0000       0.606210        16.4958 
  71   0.0000       0.621090        16.9007 
  72   0.0000       0.628066        17.0905 
  73   0.0000       0.634604        17.2685 
  74   0.0000       0.656202        17.8562 
  75   0.0000       0.673307        18.3216 
  76   0.0000       0.688503        18.7351 
  77   0.0000       0.690428        18.7875 
  78   0.0000       0.700823        19.0704 
  79   0.0000       0.730932        19.8897 
  80   0.0000       0.751791        20.4573 
  81   0.0000       0.763670        20.7805 
  82   0.0000       0.788981        21.4693 
  83   0.0000       0.813202        22.1284 
  84   0.0000       0.826393        22.4873 
  85   0.0000       0.849538        23.1171 
  86   0.0000       0.857840        23.3430 
  87   0.0000       0.888961        24.1898 
  88   0.0000       0.899508        24.4768 
  89   0.0000       0.913490        24.8573 
  90   0.0000       0.967720        26.3330 
  91   0.0000       0.985065        26.8050 
  92   0.0000       0.990974        26.9658 
  93   0.0000       1.012908        27.5626 
  94   0.0000       1.032839        28.1050 
  95   0.0000       1.045443        28.4480 
  96   0.0000       1.086237        29.5580 
  97   0.0000       1.093255        29.7490 
  98   0.0000       1.111582        30.2477 
  99   0.0000       1.125544        30.6276 
 100   0.0000       1.159464        31.5506 
 101   0.0000       1.213565        33.0228 
 102   0.0000       1.228293        33.4235 
 103   0.0000       1.240457        33.7545 
 104   0.0000       1.265644        34.4399 
 105   0.0000       1.279534        34.8179 
 106   0.0000       1.314894        35.7801 
 107   0.0000       1.332730        36.2654 
 108   0.0000       1.357929        36.9511 
 109   0.0000       1.367332        37.2070 
 110   0.0000       1.432555        38.9818 
 111   0.0000       1.439900        39.1817 
 112   0.0000       1.453372        39.5483 
 113   0.0000       1.468691        39.9651 
 114   0.0000       1.502074        40.8735 
 115   0.0000       1.521296        41.3966 
 116   0.0000       1.545014        42.0420 
 117   0.0000       1.583059        43.0772 
 118   0.0000       1.635404        44.5016 
 119   0.0000       1.639173        44.6042 
 120   0.0000       1.674376        45.5621 
 121   0.0000       1.692892        46.0659 
 122   0.0000       1.722869        46.8816 
 123   0.0000       1.739738        47.3407 
 124   0.0000       1.753885        47.7256 
 125   0.0000       1.763731        47.9936 
 126   0.0000       1.788350        48.6635 
 127   0.0000       1.807455        49.1833 
 128   0.0000       1.820295        49.5327 
 129   0.0000       1.827820        49.7375 
 130   0.0000       1.841275        50.1036 
 131   0.0000       1.876183        51.0535 
 132   0.0000       1.884846        51.2893 
 133   0.0000       1.914176        52.0874 
 134   0.0000       1.936064        52.6830 
 135   0.0000       1.983004        53.9603 
 136   0.0000       2.017273        54.8928 
 137   0.0000       2.036856        55.4257 
 138   0.0000       2.076935        56.5163 
 139   0.0000       2.093109        56.9564 
 140   0.0000       2.129693        57.9519 
 141   0.0000       2.150492        58.5179 
 142   0.0000       2.164091        58.8879 
 143   0.0000       2.194494        59.7152 
 144   0.0000       2.215495        60.2867 
 145   0.0000       2.226615        60.5893 
 146   0.0000       2.250513        61.2396 
 147   0.0000       2.271185        61.8021 
 148   0.0000       2.278955        62.0135 
 149   0.0000       2.294592        62.4390 
 150   0.0000       2.326776        63.3148 
 151   0.0000       2.397893        65.2500 
 152   0.0000       2.434907        66.2572 
 153   0.0000       2.443012        66.4777 
 154   0.0000       2.454656        66.7946 
 155   0.0000       2.485812        67.6424 
 156   0.0000       2.512107        68.3579 
 157   0.0000       2.536784        69.0294 
 158   0.0000       2.570752        69.9537 
 159   0.0000       2.578871        70.1746 
 160   0.0000       2.596130        70.6443 
 161   0.0000       2.615029        71.1586 
 162   0.0000       2.638772        71.8046 
 163   0.0000       2.651662        72.1554 
 164   0.0000       2.702346        73.5346 
 165   0.0000       2.727612        74.2221 
 166   0.0000       2.754203        74.9457 
 167   0.0000       2.782304        75.7104 
 168   0.0000       2.833847        77.1129 
 169   0.0000       2.863200        77.9116 
 170   0.0000       2.882779        78.4444 
 171   0.0000       2.890139        78.6447 
 172   0.0000       2.897387        78.8419 
 173   0.0000       2.902757        78.9880 
 174   0.0000       2.923841        79.5618 
 175   0.0000       2.937621        79.9367 
 176   0.0000       2.941826        80.0511 
 177   0.0000       2.986655        81.2710 
 178   0.0000       2.999993        81.6340 
 179   0.0000       3.023324        82.2688 
 180   0.0000       3.040261        82.7297 
 181   0.0000       3.052542        83.0639 
 182   0.0000       3.087441        84.0135 
 183   0.0000       3.109032        84.6011 
 184   0.0000       3.126325        85.0716 
 185   0.0000       3.160209        85.9937 
 186   0.0000       3.171606        86.3038 
 187   0.0000       3.194968        86.9395 
 188   0.0000       3.212047        87.4043 
 189   0.0000       3.248294        88.3906 
 190   0.0000       3.269506        88.9678 
 191   0.0000       3.276466        89.1572 
 192   0.0000       3.284787        89.3836 
 193   0.0000       3.299888        89.7945 
 194   0.0000       3.306078        89.9629 
 195   0.0000       3.334771        90.7437 
 196   0.0000       3.366279        91.6011 
 197   0.0000       3.384624        92.1003 
 198   0.0000       3.392114        92.3041 
 199   0.0000       3.404108        92.6305 
 200   0.0000       3.414425        92.9112 
 201   0.0000       3.449220        93.8581 
 202   0.0000       3.464854        94.2835 
 203   0.0000       3.488712        94.9327 
 204   0.0000       3.511772        95.5602 
 205   0.0000       3.522223        95.8446 
 206   0.0000       3.568881        97.1142 
 207   0.0000       3.594468        97.8104 
 208   0.0000       3.612377        98.2978 
 209   0.0000       3.625562        98.6566 
 210   0.0000       3.646559        99.2279 
 211   0.0000       3.654649        99.4480 
 212   0.0000       3.673078        99.9495 
 213   0.0000       3.691838       100.4600 
 214   0.0000       3.713905       101.0605 
 215   0.0000       3.722702       101.2999 
 216   0.0000       3.739931       101.7687 
 217   0.0000       3.765400       102.4617 
 218   0.0000       3.773762       102.6893 
 219   0.0000       3.791427       103.1700 
 220   0.0000       3.826133       104.1144 
 221   0.0000       3.890867       105.8759 
 222   0.0000       3.910257       106.4035 
 223   0.0000       3.926010       106.8322 
 224   0.0000       3.984388       108.4207 
 225   0.0000       4.011345       109.1543 
 226   0.0000       4.036537       109.8397 
 227   0.0000       4.052805       110.2824 
 228   0.0000       4.143963       112.7630 
 229   0.0000       4.214474       114.6817 
 230   0.0000       4.248053       115.5954 
 231   0.0000       4.306272       117.1796 
 232   0.0000       4.313672       117.3810 
 233   0.0000       4.317767       117.4924 
 234   0.0000       4.334453       117.9465 
 235   0.0000       4.347972       118.3143 
 236   0.0000       4.369510       118.9004 
 237   0.0000       4.452038       121.1461 
 238   0.0000       4.510280       122.7309 
 239   0.0000       4.612831       125.5215 
 240   0.0000       4.620221       125.7226 
 241   0.0000       4.690504       127.6351 
 242   0.0000       4.706827       128.0793 
 243   0.0000       4.729690       128.7014 
 244   0.0000       4.793443       130.4362 
 245   0.0000       4.808499       130.8459 
 246   0.0000       4.874943       132.6540 
 247   0.0000       4.902033       133.3911 
 248   0.0000       4.955999       134.8596 
 249   0.0000       4.985142       135.6526 
 250   0.0000       4.998126       136.0059 
 251   0.0000       5.005811       136.2151 
 252   0.0000       5.036371       137.0466 
 253   0.0000       5.132971       139.6752 
 254   0.0000       5.165343       140.5561 
 255   0.0000       5.215674       141.9257 
 256   0.0000       5.295590       144.1003 
 257   0.0000       5.375353       146.2708 
 258   0.0000       5.492606       149.4614 
 259   0.0000       5.555959       151.1853 
 260   0.0000       5.573665       151.6671 
 261   0.0000       5.623258       153.0166 
 262   0.0000       5.720696       155.6681 
 263   0.0000       5.749535       156.4528 
 264   0.0000       5.840023       158.9151 
 265   0.0000       5.888873       160.2444 
 266   0.0000       5.911112       160.8495 
 267   0.0000       5.924178       161.2051 
 268   0.0000       6.032396       164.1498 
 269   0.0000       6.058064       164.8483 
 270   0.0000       6.133065       166.8892 
 271   0.0000       6.168477       167.8528 
 272   0.0000       6.177574       168.1003 
 273   0.0000       6.206527       168.8882 
 274   0.0000       6.257770       170.2826 
 275   0.0000       6.283527       170.9835 
 276   0.0000       6.400789       174.1743 
 277   0.0000       6.415073       174.5630 
 278   0.0000       6.454966       175.6485 
 279   0.0000       6.527563       177.6240 
 280   0.0000       6.633722       180.5127 
 281   0.0000       6.655767       181.1126 
 282   0.0000       6.686122       181.9386 
 283   0.0000       6.835336       185.9990 
 284   0.0000       6.906776       187.9429 
 285   0.0000       7.049295       191.8211 
 286   0.0000       7.112327       193.5363 
 287   0.0000       7.138888       194.2590 
 288   0.0000       7.160528       194.8479 
 289   0.0000       7.180082       195.3800 
 290   0.0000       7.224468       196.5878 
 291   0.0000       7.340886       199.7557 
 292   0.0000       7.369952       200.5466 
 293   0.0000       7.374717       200.6762 
 294   0.0000       7.481414       203.5796 
 295   0.0000       7.516560       204.5360 
 296   0.0000       7.623485       207.4456 
 297   0.0000       7.696396       209.4296 
 298   0.0000       7.794299       212.0937 
 299   0.0000       7.913269       215.3310 
 300   0.0000      23.378709       636.1670 
 301   0.0000      23.482356       638.9874 
 302   0.0000      23.598995       642.1613 
 303   0.0000      24.384911       663.5472 
 304   0.0000      24.505111       666.8180 
 305   0.0000      33.369796       908.0383 
 306   0.0000      45.416465      1235.8449 
 307   0.0000      45.498681      1238.0821 
 308   0.0000      45.756504      1245.0978 

                    ********************************
                    * MULLIKEN POPULATION ANALYSIS *
                    ********************************

-----------------------
MULLIKEN ATOMIC CHARGES
-----------------------
   0 O :   -0.407779
   1 C :    0.648502
   2 O :   -0.320747
   3 C :   -0.037974
   4 C :    0.151477
   5 C :   -0.018248
   6 O :   -0.422098
   7 C :   -0.090429
   8 N :   -0.116675
   9 H :    0.124991
  10 H :    0.136087
  11 H :    0.125690
  12 H :    0.114059
  13 H :    0.113147
Sum of atomic charges:   -0.0000000

--------------------------------
MULLIKEN REDUCED ORBITAL CHARGES
--------------------------------
  0 O s       :     3.848485  s :     3.848485
      pz      :     1.398176  p :     4.519402
      px      :     1.797509
      py      :     1.323718
      dz2     :     0.003948  d :     0.037613
      dxz     :     0.000317
      dyz     :     0.013705
      dx2y2   :     0.011919
      dxy     :     0.007725
      f0      :     0.000200  f :     0.002279
      f+1     :     0.000017
      f-1     :     0.000320
      f+2     :     0.000531
      f-2     :     0.000049
      f+3     :     0.000533
      f-3     :     0.000630
  1 C s       :     2.951353  s :     2.951353
      pz      :     0.680862  p :     2.073267
      px      :     0.683508
      py      :     0.708897
      dz2     :     0.010993  d :     0.301119
      dxz     :     0.033767
      dyz     :     0.073394
      dx2y2   :     0.057377
      dxy     :     0.125588
      f0      :     0.003148  f :     0.025759
      f+1     :     0.001181
      f-1     :     0.002031
      f+2     :     0.003229
      f-2     :     0.002716
      f+3     :     0.008952
      f-3     :     0.004502
  2 O s       :     3.768194  s :     3.768194
      pz      :     1.750758  p :     4.509238
      px      :     1.187320
      py      :     1.571160
      dz2     :     0.004984  d :     0.041039
      dxz     :     0.005552
      dyz     :     0.004059
      dx2y2   :     0.006436
      dxy     :     0.020008
      f0      :     0.000296  f :     0.002277
      f+1     :     0.000451
      f-1     :     0.000194
      f+2     :     0.000102
      f-2     :     0.000254
      f+3     :     0.000347
      f-3     :     0.000632
  3 C s       :     3.204376  s :     3.204376
      pz      :     1.059521  p :     2.686547
      px      :     0.717343
      py      :     0.909683
      dz2     :     0.020650  d :     0.136213
      dxz     :     0.019667
      dyz     :     0.031559
      dx2y2   :     0.031723
      dxy     :     0.032613
      f0      :     0.001216  f :     0.010838
      f+1     :     0.001105
      f-1     :     0.001575
      f+2     :     0.000644
      f-2     :     0.001560
      f+3     :     0.002383
      f-3     :     0.002355
  4 C s       :     3.069784  s :     3.069784
      pz      :     0.735486  p :     2.603456
      px      :     0.938043
      py      :     0.929927
      dz2     :     0.034474  d :     0.160119
      dxz     :     0.025761
      dyz     :     0.045588
      dx2y2   :     0.020997
      dxy     :     0.033300
      f0      :     0.003367  f :     0.015163
      f+1     :     0.002637
      f-1     :     0.002020
      f+2     :     0.001943
      f-2     :     0.001953
      f+3     :     0.001592
      f-3     :     0.001651
  5 C s       :     3.203004  s :     3.203004
      pz      :     0.848960  p :     2.676887
      px      :     0.902077
      py      :     0.925851
      dz2     :     0.024286  d :     0.125482
      dxz     :     0.029638
      dyz     :     0.019397
      dx2y2   :     0.034844
      dxy     :     0.017316
      f0      :     0.001397  f :     0.012876
      f+1     :     0.001979
      f-1     :     0.001073
      f+2     :     0.002495
      f-2     :     0.001961
      f+3     :     0.001648
      f-3     :     0.002324
  6 O s       :     3.864793  s :     3.864793
      pz      :     1.366695  p :     4.509568
      px      :     1.427756
      py      :     1.715118
      dz2     :     0.012184  d :     0.045413
      dxz     :     0.013728
      dyz     :     0.010436
      dx2y2   :     0.003055
      dxy     :     0.006010
      f0      :     0.000396  f :     0.002324
      f+1     :     0.000418
      f-1     :     0.000589
      f+2     :     0.000279
      f-2     :     0.000401
      f+3     :     0.000090
      f-3     :     0.000152
  7 C s       :     3.219754  s :     3.219754
      pz      :     0.950037  p :     2.765425
      px      :     0.905134
      py      :     0.910255
      dz2     :     0.008462  d :     0.086780
      dxz     :     0.017121
      dyz     :     0.009508
      dx2y2   :     0.025546
      dxy     :     0.026143
      f0      :     0.002029  f :     0.018470
      f+1     :     0.001794
      f-1     :     0.001022
      f+2     :     0.000957
      f-2     :     0.003478
      f+3     :     0.006123
      f-3     :     0.003066
  8 N s       :     3.736165  s :     3.736165
      pz      :     0.983973  p :     3.320873
      px      :     1.206070
      py      :     1.130830
      dz2     :     0.004273  d :     0.056634
      dxz     :     0.014861
      dyz     :     0.006953
      dx2y2   :     0.020077
      dxy     :     0.010471
      f0      :     0.000330  f :     0.003003
      f+1     :     0.000280
      f-1     :     0.000148
      f+2     :     0.000167
      f-2     :     0.000600
      f+3     :     0.001071
      f-3     :     0.000408
  9 H s       :     0.853054  s :     0.853054
      pz      :     0.013264  p :     0.021955
      px      :     0.002437
      py      :     0.006255
 10 H s       :     0.841844  s :     0.841844
      pz      :     0.009557  p :     0.022069
      px      :     0.002482
      py      :     0.010030
 11 H s       :     0.851404  s :     0.851404
      pz      :     0.007872  p :     0.022906
      px      :     0.003585
      py      :     0.011449
 12 H s       :     0.863657  s :     0.863657
      pz      :     0.004947  p :     0.022284
      px      :     0.011876
      py      :     0.005461
 13 H s       :     0.864698  s :     0.864698
      pz      :     0.003878  p :     0.022155
      px      :     0.003373
      py      :     0.014904


                     *******************************
                     * LOEWDIN POPULATION ANALYSIS *
                     *******************************

----------------------
LOEWDIN ATOMIC CHARGES
----------------------
   0 O :    0.108722
   1 C :   -0.403878
   2 O :    0.232726
   3 C :   -0.198599
   4 C :   -0.262509
   5 C :   -0.216993
   6 O :    0.104224
   7 C :   -0.098616
   8 N :    0.091959
   9 H :    0.134342
  10 H :    0.138139
  11 H :    0.136830
  12 H :    0.117141
  13 H :    0.116511

-------------------------------
LOEWDIN REDUCED ORBITAL CHARGES
-------------------------------
  0 O s       :     3.397653  s :     3.397653
      pz      :     1.313557  p :     4.420319
      px      :     1.627589
      py      :     1.479173
      dz2     :     0.008282  d :     0.067390
      dxz     :     0.000572
      dyz     :     0.015859
      dx2y2   :     0.026327
      dxy     :     0.016349
      f0      :     0.000429  f :     0.005916
      f+1     :     0.000092
      f-1     :     0.000929
      f+2     :     0.000884
      f-2     :     0.000163
      f+3     :     0.001593
      f-3     :     0.001827
  1 C s       :     2.732950  s :     2.732950
      pz      :     0.681473  p :     2.534998
      px      :     0.878645
      py      :     0.974880
      dz2     :     0.068996  d :     0.976764
      dxz     :     0.102516
      dyz     :     0.182125
      dx2y2   :     0.234211
      dxy     :     0.388916
      f0      :     0.011387  f :     0.159167
      f+1     :     0.007752
      f-1     :     0.013227
      f+2     :     0.021222
      f-2     :     0.016847
      f+3     :     0.062364
      f-3     :     0.026367
  2 O s       :     3.247072  s :     3.247072
      pz      :     1.599387  p :     4.411974
      px      :     1.254839
      py      :     1.557748
      dz2     :     0.011434  d :     0.101945
      dxz     :     0.015665
      dyz     :     0.006946
      dx2y2   :     0.025846
      dxy     :     0.042054
      f0      :     0.000485  f :     0.006284
      f+1     :     0.000872
      f-1     :     0.000325
      f+2     :     0.000139
      f-2     :     0.000961
      f+3     :     0.002021
      f-3     :     0.001481
  3 C s       :     2.794743  s :     2.794743
      pz      :     1.044593  p :     2.843536
      px      :     0.814643
      py      :     0.984300
      dz2     :     0.070716  d :     0.492822
      dxz     :     0.066848
      dyz     :     0.108061
      dx2y2   :     0.109832
      dxy     :     0.137364
      f0      :     0.006849  f :     0.067498
      f+1     :     0.007698
      f-1     :     0.005038
      f+2     :     0.006247
      f-2     :     0.009711
      f+3     :     0.017158
      f-3     :     0.014797
  4 C s       :     2.750033  s :     2.750033
      pz      :     0.813034  p :     2.806566
      px      :     1.008692
      py      :     0.984840
      dz2     :     0.131551  d :     0.616205
      dxz     :     0.114075
      dyz     :     0.150203
      dx2y2   :     0.099568
      dxy     :     0.120808
      f0      :     0.022389  f :     0.089705
      f+1     :     0.016027
      f-1     :     0.011545
      f+2     :     0.012238
      f-2     :     0.010424
      f+3     :     0.009979
      f-3     :     0.007104
  5 C s       :     2.805129  s :     2.805129
      pz      :     0.886146  p :     2.854135
      px      :     0.994578
      py      :     0.973411
      dz2     :     0.080456  d :     0.482798
      dxz     :     0.105825
      dyz     :     0.072087
      dx2y2   :     0.126097
      dxy     :     0.098333
      f0      :     0.008107  f :     0.074931
      f+1     :     0.012877
      f-1     :     0.007688
      f+2     :     0.013129
      f-2     :     0.012783
      f+3     :     0.008567
      f-3     :     0.011780
  6 O s       :     3.369331  s :     3.369331
      pz      :     1.424279  p :     4.428569
      px      :     1.372400
      py      :     1.631890
      dz2     :     0.025795  d :     0.091299
      dxz     :     0.021532
      dyz     :     0.021668
      dx2y2   :     0.010798
      dxy     :     0.011506
      f0      :     0.001163  f :     0.006577
      f+1     :     0.001277
      f-1     :     0.001484
      f+2     :     0.001036
      f-2     :     0.000902
      f+3     :     0.000347
      f-3     :     0.000367
  7 C s       :     2.830245  s :     2.830245
      pz      :     0.881653  p :     2.845669
      px      :     1.039755
      py      :     0.924261
      dz2     :     0.042197  d :     0.362480
      dxz     :     0.062582
      dyz     :     0.034279
      dx2y2   :     0.109585
      dxy     :     0.113837
      f0      :     0.005833  f :     0.060223
      f+1     :     0.006968
      f-1     :     0.003751
      f+2     :     0.002662
      f-2     :     0.009673
      f+3     :     0.016097
      f-3     :     0.015240
  8 N s       :     3.312041  s :     3.312041
      pz      :     0.962140  p :     3.462736
      px      :     1.338341
      py      :     1.162256
      dz2     :     0.012757  d :     0.117532
      dxz     :     0.025955
      dyz     :     0.011952
      dx2y2   :     0.033345
      dxy     :     0.033523
      f0      :     0.001629  f :     0.015732
      f+1     :     0.001928
      f-1     :     0.000961
      f+2     :     0.000719
      f-2     :     0.002658
      f+3     :     0.003915
      f-3     :     0.003922
  9 H s       :     0.806802  s :     0.806802
      pz      :     0.034138  p :     0.058856
      px      :     0.008077
      py      :     0.016641
 10 H s       :     0.802671  s :     0.802671
      pz      :     0.026211  p :     0.059190
      px      :     0.008279
      py      :     0.024700
 11 H s       :     0.805039  s :     0.805039
      pz      :     0.019595  p :     0.058131
      px      :     0.010662
      py      :     0.027874
 12 H s       :     0.822646  s :     0.822646
      pz      :     0.015049  p :     0.060213
      px      :     0.028215
      py      :     0.016949
 13 H s       :     0.823440  s :     0.823440
      pz      :     0.012408  p :     0.060049
      px      :     0.010480
      py      :     0.037161


                      *****************************
                      * MAYER POPULATION ANALYSIS *
                      *****************************

  NA   - Mulliken gross atomic population
  ZA   - Total nuclear charge
  QA   - Mulliken gross atomic charge
  VA   - Mayer's total valence
  BVA  - Mayer's bonded valence
  FA   - Mayer's free valence

  ATOM       NA         ZA         QA         VA         BVA        FA
  0 O      8.4078     8.0000    -0.4078     2.0662     2.0662    -0.0000
  1 C      5.3515     6.0000     0.6485     4.1664     4.1664    -0.0000
  2 O      8.3207     8.0000    -0.3207     2.0208     2.0208    -0.0000
  3 C      6.0380     6.0000    -0.0380     3.8412     3.8412    -0.0000
  4 C      5.8485     6.0000     0.1515     3.8696     3.8696     0.0000
  5 C      6.0182     6.0000    -0.0182     3.9603     3.9603     0.0000
  6 O      8.4221     8.0000    -0.4221     1.8869     1.8869     0.0000
  7 C      6.0904     6.0000    -0.0904     3.8948     3.8948    -0.0000
  8 N      7.1167     7.0000    -0.1167     3.0082     3.0082     0.0000
  9 H      0.8750     1.0000     0.1250     0.9734     0.9734    -0.0000
 10 H      0.8639     1.0000     0.1361     0.9749     0.9749    -0.0000
 11 H      0.8743     1.0000     0.1257     0.9619     0.9619     0.0000
 12 H      0.8859     1.0000     0.1141     0.9655     0.9655     0.0000
 13 H      0.8869     1.0000     0.1131     0.9589     0.9589     0.0000

  Mayer bond orders larger than 0.1
B(  0-O ,  1-C ) :   1.9853 B(  1-C ,  2-O ) :   1.2058 B(  1-C ,  7-C ) :   0.9599 
B(  2-O ,  3-C ) :   0.8302 B(  3-C ,  4-C ) :   0.9542 B(  3-C ,  9-H ) :   0.9809 
B(  3-C , 10-H ) :   0.9859 B(  4-C ,  5-C ) :   1.0484 B(  4-C ,  6-O ) :   0.9370 
B(  4-C , 11-H ) :   0.9577 B(  5-C ,  6-O ) :   0.9236 B(  5-C , 12-H ) :   0.9683 
B(  5-C , 13-H ) :   0.9663 B(  7-C ,  8-N ) :   2.9740 

-------
TIMINGS
-------

Total SCF time: 0 days 0 hours 1 min 51 sec 

Total time                  ....     111.511 sec
Sum of individual times     ....     114.479 sec  (102.7%)

Fock matrix formation       ....     110.195 sec  ( 98.8%)
Diagonalization             ....       0.562 sec  (  0.5%)
Density matrix formation    ....       0.040 sec  (  0.0%)
Population analysis         ....       0.124 sec  (  0.1%)
Initial guess               ....       2.055 sec  (  1.8%)
Orbital Transformation      ....       0.000 sec  (  0.0%)
Orbital Orthonormalization  ....       0.000 sec  (  0.0%)
DIIS solution               ....       0.172 sec  (  0.2%)
SOSCF solution              ....       0.302 sec  (  0.3%)

   <<< Auxbasis replaced with dsgdb9nsd_042486.AUXC.tmp (Dim=759) >>> 


------------------------------------------------------------------------------
                              ORCA MP2 CALCULATION
------------------------------------------------------------------------------

Freezing NCore=18 chemical core electrons

   <<< Use J-auxbasis for calculation of Separable RI-J derivative contributions dsgdb9nsd_042486.AUXJ.tmp (Dim=773) >>> 


---------------------
RI-MP2 ENERGY+DENSITY
---------------------
Dimension of the basis                    ...  309
Memory devoted to MP2                     ... 2000 MB   
Data format for buffers                   ... DOUBLE
Compression type for matrix containers    ... UNCOMPRESSED
Overall scaling of the MP2 energy         ...   1.000e+00 Eh
Calculating two index integrals           ... done (    0.015 sec)
Cholesky decomposition of V**-1           ... done (    0.092 sec)

-----------------
RI-TRANSFORMATION (AUX index driven)
-----------------

Dimension of the orbital-basis         ... 309
Dimension of the aux-basis             ... 759
Transformation of internal MOs         ...    0-  32
Transformation of internal/external MOs...    0-  32 to   33- 308
Number Format for Storage              ... Double (8 Byte)
Integral mode                          ... Direct

First Phase: integral generation and transformation of MO indices
  Aux angular momentum 0               ... done (    0.509 sec)
  Aux angular momentum 1               ... done (    0.722 sec)
  Aux angular momentum 2               ... done (    0.752 sec)
  Aux angular momentum 3               ... done (    0.655 sec)
  Aux angular momentum 4               ... done (    0.304 sec)
Closing buffer VIJ ( 0.00 GB; CompressionRatio= 1.94)
Closing buffer VIA ( 0.05 GB; CompressionRatio= 1.00)
  Phase 1 completed in     3.039 sec
Second Phase: sorting and transformation of aux index

IJ-Transformation
Memory available                       ... 1989 MB 
Max. # MO pairs treated in a batch     ... 33    
# of internal orbitals                 ... 33
# batches for internal orbitals        ... 1
Closing buffer IJV ( 0.00 GB; CompressionRatio= 1.00)
(ij|v) transformation done in     0.156 sec

IA-Transformation
Memory available                       ... 1989 MB 
Max. # MO pairs treated in a batch     ... 33    
# of internal orbitals                 ... 33
# batches for internal orbitals        ... 1
Closing buffer IAV ( 0.05 GB; CompressionRatio= 1.00)
(ia|v) transformation done in     1.087 sec

  Phase 2 completed in     1.258 sec
RI-Integral transformation completed in     4.297 sec
Opening buffers                              ... done
Frozen core precalculation                   ... done

Starting loop over batches of integrals:

Operator 0  - window                       ... (  9- 32)x( 33-308)
Operator 0  - Memory available             ...  2000 MB
Operator 0  - Memory needed per MO         ...   3.2 MB
Operator 0  - Number of orbitals per batch ... 24
Operator 0  - Number of batches            ... 1

OPERATOR  0   PASS   0:  MOs     9 ...   32
  Reading integrals       ... ok
  Internal MO  11
  Internal MO  14
  Internal MO  17
  Internal MO  20
  Internal MO  23
  Internal MO  26
  Internal MO  29
  Internal MO  32
Time spent in pair loops =    25.713 sec
Deleting buffer (Ka|jb)[aa] ...done

-----------------------------------------------
 RI-MP2 CORRELATION ENERGY:     -1.658314536 Eh
-----------------------------------------------


---------------------
MP2 DENSITY FORMATION
---------------------

Completing the external part of the density      ... done
Storing the unrelaxed density                    ... done

Calculating G(D)                                 ... done
Completing the Lagrangian                        ... done
Solving the Z-vector equations                   ... 

------------------------------------------------------------------------------
                           ORCA CP-SCF CALCULATION
------------------------------------------------------------------------------

Input orbitals are from        ... dsgdb9nsd_042486.gbw
Input Perturbation             ... dsgdb9nsd_042486.pin.tmp
Wavefunction output            ... dsgdb9nsd_042486.pout.tmp
Perturbation mode              ... Real perturbation
Solver                         ... POPLE
Max. number of iterations      ... 128
Convergence tolerance          ... 1.000e-08
Integral handling              ... Direct
Number of perturbations        ... 1
Number of operators            ... 1
Orbital ranges used for CP-SCF:
 Operator 0:  Orbitals   0... 32  to  33...308
Variables per vector in CP-SCF ... 9108
Number of vectors sought       ... 1
     CP-SCF ITERATION   0: 
     CP-SCF ITERATION   1:      0.002935072
     CP-SCF ITERATION   2:      0.000832192
     CP-SCF ITERATION   3:      0.000174242
     CP-SCF ITERATION   4:      0.000062281
     CP-SCF ITERATION   5:      0.000009405
     CP-SCF ITERATION   6:      0.000002139
     CP-SCF ITERATION   7:      0.000000244
     CP-SCF ITERATION   8:      0.000000041
     CP-SCF ITERATION   9:      0.000000005
done
Finalizing the relaxed density                   ... done
Transforming P to the AO basis                   ... done
Storing the relaxed density                      ... done

                *********************************************
                * UNRELAXED MP2 DENSITY POPULATION ANALYSIS *
                *********************************************

------------------------------------------------------------------------------
                           ORCA POPULATION ANALYSIS
------------------------------------------------------------------------------
Input electron density              ... dsgdb9nsd_042486.pmp2ur
BaseName (.gbw .S,...)              ... dsgdb9nsd_042486

                    ********************************
                    * MULLIKEN POPULATION ANALYSIS *
                    ********************************

-----------------------
MULLIKEN ATOMIC CHARGES
-----------------------
   0 O :   -0.383696
   1 C :    0.606132
   2 O :   -0.300476
   3 C :   -0.052738
   4 C :    0.136465
   5 C :   -0.033996
   6 O :   -0.401002
   7 C :   -0.094315
   8 N :   -0.105659
   9 H :    0.127833
  10 H :    0.139055
  11 H :    0.129386
  12 H :    0.116961
  13 H :    0.116051
Sum of atomic charges:   -0.0000000

--------------------------------
MULLIKEN REDUCED ORBITAL CHARGES
--------------------------------
  0 O s       :     3.842244  s :     3.842244
      pz      :     1.381856  p :     4.472970
      px      :     1.778673
      py      :     1.312441
      dz2     :     0.008975  d :     0.063546
      dxz     :     0.005832
      dyz     :     0.018477
      dx2y2   :     0.016860
      dxy     :     0.013401
      f0      :     0.000556  f :     0.004937
      f+1     :     0.000353
      f-1     :     0.000700
      f+2     :     0.000905
      f-2     :     0.000432
      f+3     :     0.000960
      f-3     :     0.001032
  1 C s       :     2.955979  s :     2.955979
      pz      :     0.695281  p :     2.093932
      px      :     0.688608
      py      :     0.710043
      dz2     :     0.013702  d :     0.314735
      dxz     :     0.037592
      dyz     :     0.075232
      dx2y2   :     0.060970
      dxy     :     0.127240
      f0      :     0.003356  f :     0.029222
      f+1     :     0.001508
      f-1     :     0.002390
      f+2     :     0.003652
      f-2     :     0.003379
      f+3     :     0.009793
      f-3     :     0.005143
  2 O s       :     3.762537  s :     3.762537
      pz      :     1.731529  p :     4.462474
      px      :     1.175849
      py      :     1.555096
      dz2     :     0.010778  d :     0.070378
      dxz     :     0.011831
      dyz     :     0.009853
      dx2y2   :     0.012597
      dxy     :     0.025318
      f0      :     0.000680  f :     0.005088
      f+1     :     0.000831
      f-1     :     0.000574
      f+2     :     0.000491
      f-2     :     0.000677
      f+3     :     0.000789
      f-3     :     0.001047
  3 C s       :     3.201604  s :     3.201604
      pz      :     1.054005  p :     2.679744
      px      :     0.719740
      py      :     0.905999
      dz2     :     0.024909  d :     0.156985
      dxz     :     0.024991
      dyz     :     0.036011
      dx2y2   :     0.035931
      dxy     :     0.035144
      f0      :     0.001774  f :     0.014404
      f+1     :     0.001583
      f-1     :     0.002043
      f+2     :     0.001159
      f-2     :     0.002145
      f+3     :     0.002932
      f-3     :     0.002769
  4 C s       :     3.068571  s :     3.068571
      pz      :     0.738497  p :     2.596462
      px      :     0.931100
      py      :     0.926865
      dz2     :     0.037628  d :     0.179533
      dxz     :     0.029903
      dyz     :     0.049898
      dx2y2   :     0.025556
      dxy     :     0.036548
      f0      :     0.003888  f :     0.018970
      f+1     :     0.003064
      f-1     :     0.002539
      f+2     :     0.002459
      f-2     :     0.002574
      f+3     :     0.002255
      f-3     :     0.002191
  5 C s       :     3.201192  s :     3.201192
      pz      :     0.849607  p :     2.671197
      px      :     0.897945
      py      :     0.923646
      dz2     :     0.028794  d :     0.145233
      dxz     :     0.032890
      dyz     :     0.023496
      dx2y2   :     0.038708
      dxy     :     0.021344
      f0      :     0.001823  f :     0.016375
      f+1     :     0.002489
      f-1     :     0.001546
      f+2     :     0.003000
      f-2     :     0.002390
      f+3     :     0.002286
      f-3     :     0.002841
  6 O s       :     3.858279  s :     3.858279
      pz      :     1.352935  p :     4.464939
      px      :     1.413184
      py      :     1.698820
      dz2     :     0.017499  d :     0.072697
      dxz     :     0.018925
      dyz     :     0.015884
      dx2y2   :     0.008810
      dxy     :     0.011579
      f0      :     0.000811  f :     0.005087
      f+1     :     0.000822
      f-1     :     0.000999
      f+2     :     0.000677
      f-2     :     0.000796
      f+3     :     0.000462
      f-3     :     0.000520
  7 C s       :     3.218419  s :     3.218419
      pz      :     0.943655  p :     2.750359
      px      :     0.900461
      py      :     0.906242
      dz2     :     0.012462  d :     0.104255
      dxz     :     0.021038
      dyz     :     0.013634
      dx2y2   :     0.028390
      dxy     :     0.028731
      f0      :     0.002371  f :     0.021282
      f+1     :     0.002220
      f-1     :     0.001376
      f+2     :     0.001440
      f-2     :     0.003846
      f+3     :     0.006517
      f-3     :     0.003513
  8 N s       :     3.722544  s :     3.722544
      pz      :     0.982079  p :     3.300047
      px      :     1.195685
      py      :     1.122283
      dz2     :     0.008631  d :     0.077424
      dxz     :     0.018859
      dyz     :     0.011301
      dx2y2   :     0.024009
      dxy     :     0.014623
      f0      :     0.000660  f :     0.005644
      f+1     :     0.000647
      f-1     :     0.000470
      f+2     :     0.000568
      f-2     :     0.000971
      f+3     :     0.001500
      f-3     :     0.000828
  9 H s       :     0.847254  s :     0.847254
      pz      :     0.014078  p :     0.024913
      px      :     0.003568
      py      :     0.007267
 10 H s       :     0.835932  s :     0.835932
      pz      :     0.010471  p :     0.025013
      px      :     0.003603
      py      :     0.010939
 11 H s       :     0.844720  s :     0.844720
      pz      :     0.008908  p :     0.025894
      px      :     0.004669
      py      :     0.012318
 12 H s       :     0.857778  s :     0.857778
      pz      :     0.006057  p :     0.025261
      px      :     0.012717
      py      :     0.006487
 13 H s       :     0.858789  s :     0.858789
      pz      :     0.005015  p :     0.025160
      px      :     0.004464
      py      :     0.015681


                     *******************************
                     * LOEWDIN POPULATION ANALYSIS *
                     *******************************

----------------------
LOEWDIN ATOMIC CHARGES
----------------------
   0 O :    0.124124
   1 C :   -0.423370
   2 O :    0.244739
   3 C :   -0.208500
   4 C :   -0.270280
   5 C :   -0.227443
   6 O :    0.118622
   7 C :   -0.106409
   8 N :    0.097899
   9 H :    0.135756
  10 H :    0.139623
  11 H :    0.138358
  12 H :    0.118773
  13 H :    0.118106

-------------------------------
LOEWDIN REDUCED ORBITAL CHARGES
-------------------------------
  0 O s       :     3.393239  s :     3.393239
      pz      :     1.298891  p :     4.376040
      px      :     1.611508
      py      :     1.465641
      dz2     :     0.013841  d :     0.097311
      dxz     :     0.006057
      dyz     :     0.022073
      dx2y2   :     0.032824
      dxy     :     0.022516
      f0      :     0.000866  f :     0.009285
      f+1     :     0.000438
      f-1     :     0.001446
      f+2     :     0.001394
      f-2     :     0.000562
      f+3     :     0.002147
      f-3     :     0.002433
  1 C s       :     2.732960  s :     2.732960
      pz      :     0.692055  p :     2.540179
      px      :     0.876855
      py      :     0.971269
      dz2     :     0.073241  d :     0.983954
      dxz     :     0.105254
      dyz     :     0.181810
      dx2y2   :     0.236631
      dxy     :     0.387018
      f0      :     0.012151  f :     0.166277
      f+1     :     0.008520
      f-1     :     0.014156
      f+2     :     0.021653
      f-2     :     0.017819
      f+3     :     0.063027
      f-3     :     0.028952
  2 O s       :     3.244446  s :     3.244446
      pz      :     1.582748  p :     4.368163
      px      :     1.242759
      py      :     1.542655
      dz2     :     0.017944  d :     0.133067
      dxz     :     0.021848
      dyz     :     0.012924
      dx2y2   :     0.031679
      dxy     :     0.048670
      f0      :     0.000921  f :     0.009585
      f+1     :     0.001335
      f-1     :     0.000745
      f+2     :     0.000557
      f-2     :     0.001424
      f+3     :     0.002517
      f-3     :     0.002085
  3 C s       :     2.793733  s :     2.793733
      pz      :     1.037551  p :     2.828232
      px      :     0.812694
      py      :     0.977986
      dz2     :     0.075535  d :     0.513517
      dxz     :     0.071250
      dyz     :     0.112501
      dx2y2   :     0.112910
      dxy     :     0.141322
      f0      :     0.007563  f :     0.073017
      f+1     :     0.008415
      f-1     :     0.006021
      f+2     :     0.006908
      f-2     :     0.010449
      f+3     :     0.017786
      f-3     :     0.015875
  4 C s       :     2.749077  s :     2.749077
      pz      :     0.812277  p :     2.789330
      px      :     0.999086
      py      :     0.977967
      dz2     :     0.135950  d :     0.636158
      dxz     :     0.117326
      dyz     :     0.153335
      dx2y2   :     0.104341
      dxy     :     0.125207
      f0      :     0.023042  f :     0.095714
      f+1     :     0.016977
      f-1     :     0.012377
      f+2     :     0.012816
      f-2     :     0.011276
      f+3     :     0.010940
      f-3     :     0.008287
  5 C s       :     2.804068  s :     2.804068
      pz      :     0.883436  p :     2.838855
      px      :     0.986960
      py      :     0.968459
      dz2     :     0.084407  d :     0.504325
      dxz     :     0.110138
      dyz     :     0.076691
      dx2y2   :     0.130486
      dxy     :     0.102604
      f0      :     0.008771  f :     0.080195
      f+1     :     0.013481
      f-1     :     0.008237
      f+2     :     0.013789
      f-2     :     0.013785
      f+3     :     0.009465
      f-3     :     0.012667
  6 O s       :     3.365295  s :     3.365295
      pz      :     1.410258  p :     4.385489
      px      :     1.358489
      py      :     1.616743
      dz2     :     0.031527  d :     0.120922
      dxz     :     0.027898
      dyz     :     0.027465
      dx2y2   :     0.016417
      dxy     :     0.017615
      f0      :     0.001637  f :     0.009672
      f+1     :     0.001769
      f-1     :     0.001922
      f+2     :     0.001449
      f-2     :     0.001394
      f+3     :     0.000740
      f-3     :     0.000760
  7 C s       :     2.827701  s :     2.827701
      pz      :     0.873197  p :     2.822181
      px      :     1.030965
      py      :     0.918020
      dz2     :     0.047640  d :     0.389061
      dxz     :     0.068494
      dyz     :     0.039323
      dx2y2   :     0.113337
      dxy     :     0.120267
      f0      :     0.006678  f :     0.067466
      f+1     :     0.007865
      f-1     :     0.004370
      f+2     :     0.003431
      f-2     :     0.010845
      f+3     :     0.017860
      f-3     :     0.016417
  8 N s       :     3.303968  s :     3.303968
      pz      :     0.956558  p :     3.432370
      px      :     1.324714
      py      :     1.151099
      dz2     :     0.017811  d :     0.145688
      dxz     :     0.031502
      dyz     :     0.016981
      dx2y2   :     0.039688
      dxy     :     0.039705
      f0      :     0.002129  f :     0.020076
      f+1     :     0.002500
      f-1     :     0.001387
      f+2     :     0.001212
      f-2     :     0.003303
      f+3     :     0.004810
      f-3     :     0.004734
  9 H s       :     0.800210  s :     0.800210
      pz      :     0.036298  p :     0.064034
      px      :     0.009514
      py      :     0.018222
 10 H s       :     0.796035  s :     0.796035
      pz      :     0.027986  p :     0.064341
      px      :     0.009725
      py      :     0.026630
 11 H s       :     0.798315  s :     0.798315
      pz      :     0.021525  p :     0.063327
      px      :     0.011969
      py      :     0.029833
 12 H s       :     0.815974  s :     0.815974
      pz      :     0.016569  p :     0.065253
      px      :     0.030245
      py      :     0.018440
 13 H s       :     0.816721  s :     0.816721
      pz      :     0.013830  p :     0.065173
      px      :     0.011813
      py      :     0.039529


                      *****************************
                      * MAYER POPULATION ANALYSIS *
                      *****************************

  NA   - Mulliken gross atomic population
  ZA   - Total nuclear charge
  QA   - Mulliken gross atomic charge
  VA   - Mayer's total valence
  BVA  - Mayer's bonded valence
  FA   - Mayer's free valence

  ATOM       NA         ZA         QA         VA         BVA        FA
  0 O      8.3837     8.0000    -0.3837     2.3579     1.9005     0.4574
  1 C      5.3939     6.0000     0.6061     4.2385     3.8914     0.3471
  2 O      8.3005     8.0000    -0.3005     2.3048     1.8730     0.4318
  3 C      6.0527     6.0000    -0.0527     3.9463     3.6450     0.3013
  4 C      5.8635     6.0000     0.1365     3.9620     3.6313     0.3307
  5 C      6.0340     6.0000    -0.0340     4.0575     3.7389     0.3186
  6 O      8.4010     8.0000    -0.4010     2.1813     1.7313     0.4500
  7 C      6.0943     6.0000    -0.0943     3.9972     3.5556     0.4416
  8 N      7.1057     7.0000    -0.1057     3.1947     2.7079     0.4868
  9 H      0.8722     1.0000     0.1278     0.9813     0.9322     0.0491
 10 H      0.8609     1.0000     0.1391     0.9824     0.9344     0.0480
 11 H      0.8706     1.0000     0.1294     0.9697     0.9222     0.0474
 12 H      0.8830     1.0000     0.1170     0.9739     0.9259     0.0480
 13 H      0.8839     1.0000     0.1161     0.9676     0.9192     0.0483

  Mayer bond orders larger than 0.1
B(  0-O ,  1-C ) :   1.8399 B(  1-C ,  2-O ) :   1.1293 B(  1-C ,  7-C ) :   0.9130 
B(  2-O ,  3-C ) :   0.7741 B(  3-C ,  4-C ) :   0.9001 B(  3-C ,  9-H ) :   0.9424 
B(  3-C , 10-H ) :   0.9471 B(  4-C ,  5-C ) :   0.9795 B(  4-C ,  6-O ) :   0.8623 
B(  4-C , 11-H ) :   0.9204 B(  5-C ,  6-O ) :   0.8495 B(  5-C , 12-H ) :   0.9312 
B(  5-C , 13-H ) :   0.9288 B(  7-C ,  8-N ) :   2.6858 


                *******************************************
                * RELAXED MP2 DENSITY POPULATION ANALYSIS *
                *******************************************

------------------------------------------------------------------------------
                           ORCA POPULATION ANALYSIS
------------------------------------------------------------------------------
Input electron density              ... dsgdb9nsd_042486.pmp2re
BaseName (.gbw .S,...)              ... dsgdb9nsd_042486

                    ********************************
                    * MULLIKEN POPULATION ANALYSIS *
                    ********************************

-----------------------
MULLIKEN ATOMIC CHARGES
-----------------------
   0 O :   -0.276696
   1 C :    0.417610
   2 O :   -0.205928
   3 C :   -0.118491
   4 C :    0.059059
   5 C :   -0.089577
   6 O :   -0.316344
   7 C :   -0.125402
   8 N :   -0.037847
   9 H :    0.143410
  10 H :    0.151992
  11 H :    0.141224
  12 H :    0.129038
  13 H :    0.127954
Sum of atomic charges:   -0.0000000

--------------------------------
MULLIKEN REDUCED ORBITAL CHARGES
--------------------------------
  0 O s       :     3.822787  s :     3.822787
      pz      :     1.345203  p :     4.389098
      px      :     1.723898
      py      :     1.319997
      dz2     :     0.008604  d :     0.060033
      dxz     :     0.005864
      dyz     :     0.016661
      dx2y2   :     0.014932
      dxy     :     0.013971
      f0      :     0.000530  f :     0.004778
      f+1     :     0.000353
      f-1     :     0.000657
      f+2     :     0.000873
      f-2     :     0.000433
      f+3     :     0.000981
      f-3     :     0.000951
  1 C s       :     2.994148  s :     2.994148
      pz      :     0.798765  p :     2.256652
      px      :     0.729539
      py      :     0.728347
      dz2     :     0.014444  d :     0.304419
      dxz     :     0.037550
      dyz     :     0.066239
      dx2y2   :     0.062085
      dxy     :     0.124101
      f0      :     0.003042  f :     0.027171
      f+1     :     0.001497
      f-1     :     0.002378
      f+2     :     0.003244
      f-2     :     0.003048
      f+3     :     0.009152
      f-3     :     0.004810
  2 O s       :     3.759502  s :     3.759502
      pz      :     1.667413  p :     4.372706
      px      :     1.168398
      py      :     1.536896
      dz2     :     0.010424  d :     0.068715
      dxz     :     0.012368
      dyz     :     0.010170
      dx2y2   :     0.013270
      dxy     :     0.022484
      f0      :     0.000688  f :     0.005005
      f+1     :     0.000790
      f-1     :     0.000558
      f+2     :     0.000495
      f-2     :     0.000696
      f+3     :     0.000810
      f-3     :     0.000968
  3 C s       :     3.206982  s :     3.206982
      pz      :     1.079823  p :     2.750345
      px      :     0.746686
      py      :     0.923835
      dz2     :     0.021212  d :     0.147484
      dxz     :     0.026933
      dyz     :     0.031577
      dx2y2   :     0.035991
      dxy     :     0.031771
      f0      :     0.001699  f :     0.013681
      f+1     :     0.001449
      f-1     :     0.001882
      f+2     :     0.001076
      f-2     :     0.002113
      f+3     :     0.002890
      f-3     :     0.002572
  4 C s       :     3.125207  s :     3.125207
      pz      :     0.756223  p :     2.625538
      px      :     0.922957
      py      :     0.946359
      dz2     :     0.035110  d :     0.171979
      dxz     :     0.030676
      dyz     :     0.049445
      dx2y2   :     0.025527
      dxy     :     0.031221
      f0      :     0.003793  f :     0.018217
      f+1     :     0.002865
      f-1     :     0.002395
      f+2     :     0.002357
      f-2     :     0.002608
      f+3     :     0.002225
      f-3     :     0.001976
  5 C s       :     3.223731  s :     3.223731
      pz      :     0.870344  p :     2.713931
      px      :     0.899826
      py      :     0.943761
      dz2     :     0.028693  d :     0.136238
      dxz     :     0.028379
      dyz     :     0.022438
      dx2y2   :     0.036552
      dxy     :     0.020175
      f0      :     0.001676  f :     0.015677
      f+1     :     0.002445
      f-1     :     0.001471
      f+2     :     0.002803
      f-2     :     0.002262
      f+3     :     0.002299
      f-3     :     0.002721
  6 O s       :     3.856626  s :     3.856626
      pz      :     1.331681  p :     4.383640
      px      :     1.385774
      py      :     1.666185
      dz2     :     0.017419  d :     0.071020
      dxz     :     0.017550
      dyz     :     0.015902
      dx2y2   :     0.009107
      dxy     :     0.011042
      f0      :     0.000814  f :     0.005058
      f+1     :     0.000807
      f-1     :     0.000991
      f+2     :     0.000687
      f-2     :     0.000777
      f+3     :     0.000464
      f-3     :     0.000518
  7 C s       :     3.205828  s :     3.205828
      pz      :     0.911067  p :     2.816016
      px      :     0.960215
      py      :     0.944735
      dz2     :     0.011786  d :     0.083459
      dxz     :     0.017557
      dyz     :     0.011744
      dx2y2   :     0.019292
      dxy     :     0.023080
      f0      :     0.002265  f :     0.020099
      f+1     :     0.002115
      f-1     :     0.001314
      f+2     :     0.001390
      f-2     :     0.003675
      f+3     :     0.005999
      f-3     :     0.003341
  8 N s       :     3.661182  s :     3.661182
      pz      :     1.025247  p :     3.303547
      px      :     1.180687
      py      :     1.097613
      dz2     :     0.008027  d :     0.067998
      dxz     :     0.015741
      dyz     :     0.009933
      dx2y2   :     0.020823
      dxy     :     0.013473
      f0      :     0.000605  f :     0.005121
      f+1     :     0.000599
      f-1     :     0.000449
      f+2     :     0.000537
      f-2     :     0.000850
      f+3     :     0.001332
      f-3     :     0.000749
  9 H s       :     0.832951  s :     0.832951
      pz      :     0.012739  p :     0.023639
      px      :     0.003878
      py      :     0.007021
 10 H s       :     0.824329  s :     0.824329
      pz      :     0.009681  p :     0.023679
      px      :     0.003871
      py      :     0.010127
 11 H s       :     0.834204  s :     0.834204
      pz      :     0.008482  p :     0.024572
      px      :     0.004776
      py      :     0.011314
 12 H s       :     0.846872  s :     0.846872
      pz      :     0.006105  p :     0.024090
      px      :     0.011720
      py      :     0.006265
 13 H s       :     0.848059  s :     0.848059
      pz      :     0.005191  p :     0.023987
      px      :     0.004578
      py      :     0.014219


                     *******************************
                     * LOEWDIN POPULATION ANALYSIS *
                     *******************************

----------------------
LOEWDIN ATOMIC CHARGES
----------------------
   0 O :    0.176662
   1 C :   -0.491683
   2 O :    0.288458
   3 C :   -0.243896
   4 C :   -0.297818
   5 C :   -0.255764
   6 O :    0.159739
   7 C :   -0.122750
   8 N :    0.107645
   9 H :    0.142114
  10 H :    0.145147
  11 H :    0.144269
  12 H :    0.124209
  13 H :    0.123669

-------------------------------
LOEWDIN REDUCED ORBITAL CHARGES
-------------------------------
  0 O s       :     3.395457  s :     3.395457
      pz      :     1.274790  p :     4.320641
      px      :     1.575678
      py      :     1.470173
      dz2     :     0.013834  d :     0.097756
      dxz     :     0.006121
      dyz     :     0.022957
      dx2y2   :     0.031387
      dxy     :     0.023457
      f0      :     0.000925  f :     0.009484
      f+1     :     0.000439
      f-1     :     0.001470
      f+2     :     0.001507
      f-2     :     0.000572
      f+3     :     0.002185
      f-3     :     0.002385
  1 C s       :     2.739591  s :     2.739591
      pz      :     0.763822  p :     2.615139
      px      :     0.883240
      py      :     0.968076
      dz2     :     0.072899  d :     0.979328
      dxz     :     0.102786
      dyz     :     0.171999
      dx2y2   :     0.241546
      dxy     :     0.390097
      f0      :     0.010293  f :     0.157626
      f+1     :     0.008416
      f-1     :     0.014138
      f+2     :     0.021188
      f-2     :     0.016099
      f+3     :     0.059092
      f-3     :     0.028400
  2 O s       :     3.252218  s :     3.252218
      pz      :     1.538281  p :     4.313269
      px      :     1.245593
      py      :     1.529395
      dz2     :     0.018212  d :     0.136215
      dxz     :     0.023968
      dyz     :     0.013497
      dx2y2   :     0.032843
      dxy     :     0.047694
      f0      :     0.000972  f :     0.009840
      f+1     :     0.001333
      f-1     :     0.000753
      f+2     :     0.000575
      f-2     :     0.001540
      f+3     :     0.002575
      f-3     :     0.002093
  3 C s       :     2.802539  s :     2.802539
      pz      :     1.049380  p :     2.865908
      px      :     0.829101
      py      :     0.987427
      dz2     :     0.071468  d :     0.504102
      dxz     :     0.072812
      dyz     :     0.107964
      dx2y2   :     0.113580
      dxy     :     0.138277
      f0      :     0.007278  f :     0.071348
      f+1     :     0.008148
      f-1     :     0.005723
      f+2     :     0.006705
      f-2     :     0.010224
      f+3     :     0.017627
      f-3     :     0.015644
  4 C s       :     2.757549  s :     2.757549
      pz      :     0.823889  p :     2.812183
      px      :     1.000727
      py      :     0.987567
      dz2     :     0.135054  d :     0.634046
      dxz     :     0.117540
      dyz     :     0.152616
      dx2y2   :     0.105483
      dxy     :     0.123353
      f0      :     0.022594  f :     0.094040
      f+1     :     0.016859
      f-1     :     0.011906
      f+2     :     0.012364
      f-2     :     0.011166
      f+3     :     0.010997
      f-3     :     0.008154
  5 C s       :     2.812526  s :     2.812526
      pz      :     0.898010  p :     2.866168
      px      :     0.989281
      py      :     0.978877
      dz2     :     0.083678  d :     0.498614
      dxz     :     0.106748
      dyz     :     0.075272
      dx2y2   :     0.130719
      dxy     :     0.102197
      f0      :     0.008576  f :     0.078456
      f+1     :     0.013196
      f-1     :     0.007949
      f+2     :     0.013182
      f-2     :     0.013831
      f+3     :     0.009457
      f-3     :     0.012264
  6 O s       :     3.370656  s :     3.370656
      pz      :     1.395719  p :     4.337566
      px      :     1.345444
      py      :     1.596404
      dz2     :     0.032031  d :     0.122242
      dxz     :     0.027841
      dyz     :     0.027885
      dx2y2   :     0.016795
      dxy     :     0.017689
      f0      :     0.001659  f :     0.009797
      f+1     :     0.001807
      f-1     :     0.001914
      f+2     :     0.001462
      f-2     :     0.001434
      f+3     :     0.000750
      f-3     :     0.000771
  7 C s       :     2.839765  s :     2.839765
      pz      :     0.852750  p :     2.832153
      px      :     1.042258
      py      :     0.937145
      dz2     :     0.048580  d :     0.382053
      dxz     :     0.070267
      dyz     :     0.039304
      dx2y2   :     0.103197
      dxy     :     0.120705
      f0      :     0.007136  f :     0.068779
      f+1     :     0.008149
      f-1     :     0.004513
      f+2     :     0.003529
      f-2     :     0.011559
      f+3     :     0.017151
      f-3     :     0.016741
  8 N s       :     3.304222  s :     3.304222
      pz      :     0.988246  p :     3.428658
      px      :     1.309840
      py      :     1.130572
      dz2     :     0.017533  d :     0.139289
      dxz     :     0.027737
      dyz     :     0.015436
      dx2y2   :     0.038599
      dxy     :     0.039984
      f0      :     0.002065  f :     0.020186
      f+1     :     0.002494
      f-1     :     0.001393
      f+2     :     0.001197
      f-2     :     0.003184
      f+3     :     0.005055
      f-3     :     0.004798
  9 H s       :     0.792960  s :     0.792960
      pz      :     0.035946  p :     0.064926
      px      :     0.010410
      py      :     0.018571
 10 H s       :     0.789816  s :     0.789816
      pz      :     0.027841  p :     0.065037
      px      :     0.010529
      py      :     0.026668
 11 H s       :     0.791589  s :     0.791589
      pz      :     0.022047  p :     0.064142
      px      :     0.012451
      py      :     0.029644
 12 H s       :     0.809867  s :     0.809867
      pz      :     0.017201  p :     0.065923
      px      :     0.030157
      py      :     0.018565
 13 H s       :     0.810436  s :     0.810436
      pz      :     0.014450  p :     0.065895
      px      :     0.012235
      py      :     0.039210


                      *****************************
                      * MAYER POPULATION ANALYSIS *
                      *****************************

  NA   - Mulliken gross atomic population
  ZA   - Total nuclear charge
  QA   - Mulliken gross atomic charge
  VA   - Mayer's total valence
  BVA  - Mayer's bonded valence
  FA   - Mayer's free valence

  ATOM       NA         ZA         QA         VA         BVA        FA
  0 O      8.2767     8.0000    -0.2767     2.4918     2.0515     0.4402
  1 C      5.5824     6.0000     0.4176     4.3479     4.0209     0.3270
  2 O      8.2059     8.0000    -0.2059     2.4285     2.0121     0.4164
  3 C      6.1185     6.0000    -0.1185     3.9640     3.6675     0.2965
  4 C      5.9409     6.0000     0.0591     4.0328     3.7089     0.3239
  5 C      6.0896     6.0000    -0.0896     4.0718     3.7571     0.3147
  6 O      8.3163     8.0000    -0.3163     2.2904     1.8512     0.4393
  7 C      6.1254     6.0000    -0.1254     4.1064     3.6808     0.4255
  8 N      7.0378     7.0000    -0.0378     3.3187     2.8466     0.4721
  9 H      0.8566     1.0000     0.1434     0.9720     0.9244     0.0476
 10 H      0.8480     1.0000     0.1520     0.9763     0.9295     0.0468
 11 H      0.8588     1.0000     0.1412     0.9672     0.9209     0.0463
 12 H      0.8710     1.0000     0.1290     0.9641     0.9171     0.0470
 13 H      0.8720     1.0000     0.1280     0.9601     0.9126     0.0474

  Mayer bond orders larger than 0.1
B(  0-O ,  1-C ) :   1.9201 B(  1-C ,  2-O ) :   1.1703 B(  1-C ,  7-C ) :   0.9049 
B(  2-O ,  3-C ) :   0.8123 B(  3-C ,  4-C ) :   0.9161 B(  3-C ,  9-H ) :   0.9234 
B(  3-C , 10-H ) :   0.9289 B(  4-C ,  5-C ) :   0.9708 B(  4-C ,  6-O ) :   0.9126 
B(  4-C , 11-H ) :   0.9128 B(  5-C ,  6-O ) :   0.9050 B(  5-C , 12-H ) :   0.9164 
B(  5-C , 13-H ) :   0.9150 B(  7-C ,  8-N ) :   2.7948 


-------
TIMINGS
-------

Total time                :  605.907 sec
Integral trafo            :    4.305 sec (  0.7%)
FC preparation            :    2.635 sec (  0.4%)
I/O of integrals          :    0.041 sec (  0.0%)
K(i,j) Operators          :    6.361 sec (  1.0%)
T(i,j) pair energies      :    0.611 sec (  0.1%)
V-calculation             :    0.015 sec (  0.0%)
V**(-1/2)                 :    0.092 sec (  0.0%)
Gamma(ia|P)               :    6.224 sec (  1.0%)
Gamma-Trafo               :    1.059 sec (  0.2%)
D(virtual)                :    2.341 sec (  0.4%)
D(internal)               :    2.208 sec (  0.4%)
W(virtual)                :    0.000 sec (  0.0%)
W(internal)               :    0.000 sec (  0.0%)
L(virtual)                :    6.496 sec (  1.1%)
L(internal)               :    0.152 sec (  0.0%)
G(D)                      :   57.066 sec (  9.4%)
G(Z)                      :    0.000 sec (  0.0%)
Z-Vector Solution         :  515.752 sec ( 85.1%)
3-Index Derivative        :    0.000 sec (  0.0%)
2-Index Derivative        :    0.000 sec (  0.0%)
Separable Gradient (RIJ)  :    0.000 sec (  0.0%)
Separable Gradient (X)    :    0.000 sec (  0.0%)


---------------------------------------
MP2 TOTAL ENERGY:     -473.065708172 Eh
---------------------------------------

-------------------------   --------------------
FINAL SINGLE POINT ENERGY      -473.065708172074
-------------------------   --------------------


                            ***************************************
                            *     ORCA property calculations      *
                            ***************************************

                                    ---------------------
                                    Active property flags
                                    ---------------------
   (+) Dipole Moment


------------------------------------------------------------------------------
                       ORCA ELECTRIC PROPERTIES CALCULATION
------------------------------------------------------------------------------

Dipole Moment Calculation                       ... on
Quadrupole Moment Calculation                   ... off
Polarizability Calculation                      ... off
GBWName                                         ... dsgdb9nsd_042486.gbw
Electron density file                           ... dsgdb9nsd_042486.scfp.tmp

-------------
DIPOLE MOMENT
-------------
                                X             Y             Z
Electronic contribution:     -8.98238       0.89949      -1.01798
Nuclear contribution   :     10.81670      -1.36139       1.91265
                        -----------------------------------------
Total Dipole Moment    :      1.83432      -0.46190       0.89467
                        -----------------------------------------
Magnitude (a.u.)       :      2.09249
Magnitude (Debye)      :      5.31869


                         *** MP2 UNRELAXED DENSITY ***

------------------------------------------------------------------------------
                       ORCA ELECTRIC PROPERTIES CALCULATION
------------------------------------------------------------------------------

Dipole Moment Calculation                       ... on
Quadrupole Moment Calculation                   ... off
Polarizability Calculation                      ... off
GBWName                                         ... dsgdb9nsd_042486.gbw
Electron density file                           ... dsgdb9nsd_042486.pmp2ur

-------------
DIPOLE MOMENT
-------------
                                X             Y             Z
Electronic contribution:     -9.00479       0.90444      -1.05126
Nuclear contribution   :     10.81670      -1.36139       1.91265
                        -----------------------------------------
Total Dipole Moment    :      1.81191      -0.45695       0.86139
                        -----------------------------------------
Magnitude (a.u.)       :      2.05762
Magnitude (Debye)      :      5.23006


                           *** MP2 RELAXED DENSITY ***

------------------------------------------------------------------------------
                       ORCA ELECTRIC PROPERTIES CALCULATION
------------------------------------------------------------------------------

Dipole Moment Calculation                       ... on
Quadrupole Moment Calculation                   ... off
Polarizability Calculation                      ... off
GBWName                                         ... dsgdb9nsd_042486.gbw
Electron density file                           ... dsgdb9nsd_042486.pmp2re

-------------
DIPOLE MOMENT
-------------
                                X             Y             Z
Electronic contribution:     -9.03234       0.88362      -1.11622
Nuclear contribution   :     10.81670      -1.36139       1.91265
                        -----------------------------------------
Total Dipole Moment    :      1.78436      -0.47777       0.79644
                        -----------------------------------------
Magnitude (a.u.)       :      2.01160
Magnitude (Debye)      :      5.11307


Timings for individual modules:

Sum of individual times         ...      720.117 sec (=  12.002 min)
GTO integral calculation        ...        0.445 sec (=   0.007 min)   0.1 %
SCF iterations                  ...      113.624 sec (=   1.894 min)  15.8 %
MP2 module                      ...      606.047 sec (=  10.101 min)  84.2 %
                             ****ORCA TERMINATED NORMALLY****
TOTAL RUN TIME: 0 days 0 hours 12 minutes 0 seconds 566 msec
