
                                 *****************
                                 * O   R   C   A *
                                 *****************

           --- An Ab Initio, DFT and Semiempirical electronic structure package ---

                  #######################################################
                  #                        -***-                        #
                  #  Department of molecular theory and spectroscopy    #
                  #              Directorship: Frank Neese              #
                  # Max Planck Institute for Chemical Energy Conversion #
                  #                  D-45470 Muelheim/Ruhr              #
                  #                       Germany                       #
                  #                                                     #
                  #                  All rights reserved                #
                  #                        -***-                        #
                  #######################################################


                         Program Version 3.0.3 - RELEASE   -


 With contributions from (in alphabetic order):
   Ute Becker             : Parallelization
   Dmytro Bykov           : SCF Hessian
   Dmitry Ganyushin       : Spin-Orbit,Spin-Spin,Magnetic field MRCI
   Andreas Hansen         : Spin unrestricted coupled pair/coupled cluster methods
   Dimitrios Liakos       : Extrapolation schemes; parallel MDCI
   Robert Izsak           : Overlap fitted RIJCOSX, COSX-SCS-MP3
   Christian Kollmar      : KDIIS, OOCD, Brueckner-CCSD(T), CCSD density
   Simone Kossmann        : Meta GGA functionals, TD-DFT gradient, OOMP2, MP2 Hessian
   Taras Petrenko         : DFT Hessian,TD-DFT gradient, ASA and ECA modules, normal mode analysis, Resonance Raman, ABS, FL, XAS/XES, NRVS
   Christoph Reimann      : Effective Core Potentials
   Michael Roemelt        : Restricted open shell CIS
   Christoph Riplinger    : Improved optimizer, TS searches, QM/MM, DLPNO-CCSD
   Barbara Sandhoefer     : DKH picture change effects
   Igor Schapiro          : Molecular dynamics
   Kantharuban Sivalingam : CASSCF convergence, NEVPT2
   Boris Wezisla          : Elementary symmetry handling
   Frank Wennmohs         : Technical directorship


 We gratefully acknowledge several colleagues who have allowed us to
 interface, adapt or use parts of their codes:
   Stefan Grimme, W. Hujo, H. Kruse, T. Risthaus : VdW corrections, initial TS optimization,
                                                   DFT functionals, gCP
   Ed Valeev                                     : LibInt (2-el integral package), F12 methods
   Garnet Chan, S. Sharma, R. Olivares           : DMRG
   Ulf Ekstrom                                   : XCFun DFT Library
   Mihaly Kallay                                 : mrcc  (arbitrary order and MRCC methods)
   Andreas Klamt, Michael Diedenhofen            : otool_cosmo (COSMO solvation model)
   Frank Weinhold                                : gennbo (NPA and NBO analysis)
   Christopher J. Cramer and Donald G. Truhlar   : smd solvation model


 Your calculation uses the libint2 library for the computation of 2-el integrals
 For citations please refer to: http://libint.valeyev.net

 This ORCA versions uses:
   CBLAS   interface :  Fast vector & matrix operations
   LAPACKE interface :  Fast linear algebra routines
   SCALAPACK package :  Parallel linear algebra routines


Your calculation utilizes the basis: Ahlrichs-TZV
Cite in your paper:
H - Kr: A. Schaefer, H. Horn and R. Ahlrichs, J. Chem. Phys. 97, 2571 (1992).

The def2-TZV basis will be loaded
Cite in your paper:
 	F. Weigend, R. Ahlrichs, Phys. Chem. Chem. Phys. 2005, 7, 3297.

================================================================================
                                        WARNINGS
                       Please study these warnings very carefully!
================================================================================
Now building the actual basis set


INFO   : the flag for use of LIBINT has been found!

================================================================================
                                       INPUT FILE
================================================================================
NAME = dsgdb9nsd_007779.inp
|  1> ! RI-MP2 RIJK def2-TZVP def2-TZVP/C def2-TZVP/JK TIGHTSCF
|  2> % maxcore 2000
|  3> % mp2 density relaxed end
|  4> *xyz 0 1
|  5>  C        0.0039807520     1.5335146978     0.0646195136 
|  6>  C        0.0292874588     0.0163799928     0.0254663696 
|  7>  C        0.6613609665    -0.5531086365    -1.2492471683 
|  8>  C        0.9217798704    -2.0378018212    -1.1422999293 
|  9>  N        0.8646357846    -2.8006092607    -2.1489743050 
| 10>  O        1.3221135470    -2.4844631781     0.0896851363 
| 11>  C        0.7741658456    -1.8204195731     1.2342217328 
| 12>  O        0.8011329255    -0.4391728683     1.1416936259 
| 13>  H        1.0203622837     1.9326687880    -0.0057924868 
| 14>  H       -0.5828659992     1.9258856593    -0.7709741395 
| 15>  H       -0.4409327855     1.8843604622     0.9993566259 
| 16>  H       -0.9966944193    -0.3761490940     0.1305947256 
| 17>  H        0.0465101910    -0.3682661242    -2.1317717471 
| 18>  H        1.6283561617    -0.0563290809    -1.4004841131 
| 19>  H        1.1104873697    -3.7552006314    -1.8765981102 
| 20>  H       -0.2579335057    -2.1847073115     1.3745167353 
| 21>  H        1.3994327432    -2.1153787203     2.0781854144 
| 22> *
| 23> 
| 24>                          ****END OF INPUT****
================================================================================

                       ****************************
                       * Single Point Calculation *
                       ****************************

---------------------------------
CARTESIAN COORDINATES (ANGSTROEM)
---------------------------------
  C      0.003981    1.533515    0.064620
  C      0.029287    0.016380    0.025466
  C      0.661361   -0.553109   -1.249247
  C      0.921780   -2.037802   -1.142300
  N      0.864636   -2.800609   -2.148974
  O      1.322114   -2.484463    0.089685
  C      0.774166   -1.820420    1.234222
  O      0.801133   -0.439173    1.141694
  H      1.020362    1.932669   -0.005792
  H     -0.582866    1.925886   -0.770974
  H     -0.440933    1.884360    0.999357
  H     -0.996694   -0.376149    0.130595
  H      0.046510   -0.368266   -2.131772
  H      1.628356   -0.056329   -1.400484
  H      1.110487   -3.755201   -1.876598
  H     -0.257934   -2.184707    1.374517
  H      1.399433   -2.115379    2.078185

----------------------------
CARTESIAN COORDINATES (A.U.)
----------------------------
  NO LB      ZA    FRAG    MASS        X           Y           Z
   0 C     6.0000    0    12.011          0.007522531087059          2.897922801185011          0.122113183611200
   1 C     6.0000    0    12.011          0.055345276290502          0.030953700467602          0.048124464169218
   2 C     6.0000    0    12.011          1.249791102350467         -1.045223845291600         -2.360735021663630
   3 C     6.0000    0    12.011          1.741911510817424         -3.850887357273962         -2.158634029174608
   4 N     7.0000    0    14.007          1.633924838482126         -5.292384510846666         -4.060972905283759
   5 O     8.0000    0    15.999          2.498432521777223         -4.694954996420619          0.169480345890400
   6 C     6.0000    0    12.011          1.462961430419565         -3.440094441988838          2.332341063525732
   7 O     8.0000    0    15.999          1.513921826062137         -0.829916446535666          2.157488281794543
   8 H     1.0000    0     1.008          1.928205273575460          3.652214716897511         -0.010946213686354
   9 H     1.0000    0     1.008         -1.101457111262363          3.639396461323370         -1.456929979990599
  10 H     1.0000    0     1.008         -0.833242208062044          3.560925211147269          1.888510333070593
  11 H     1.0000    0     1.008         -1.883479491684676         -0.710818773182602          0.246788265918595
  12 H     1.0000    0     1.008          0.087891523426369         -0.695922119138629         -4.028464782049835
  13 H     1.0000    0     1.008          3.077147194096189         -0.106446536276494         -2.646531428666596
  14 H     1.0000    0     1.008          2.098517003911561         -7.096300771274166         -3.546256491712173
  15 H     1.0000    0     1.008         -0.487423686535216         -4.128498501510387          2.597460196208530
  16 H     1.0000    0     1.008          2.644544627490148         -3.997486450891803          3.927201288725646

--------------------------------
INTERNAL COORDINATES (ANGSTROEM)
--------------------------------
 C      0   0   0   0.000000     0.000     0.000
 C      1   0   0   1.517851     0.000     0.000
 C      2   1   0   1.532556   113.563     0.000
 C      3   2   1   1.511148   112.166   168.642
 N      4   3   2   1.264331   121.913   148.233
 O      4   3   2   1.370241   115.737   323.437
 C      6   4   3   1.432189   117.103    34.258
 O      7   6   4   1.384605   113.683   313.638
 H      1   2   3   1.094218   110.332   300.789
 H      1   2   3   1.093874   110.351    60.757
 H      1   2   3   1.093057   110.467   180.919
 H      2   1   3   1.103526   109.729   237.353
 H      3   2   1   1.091356   112.167   291.322
 H      3   2   1   1.097608   108.046    50.191
 H      5   4   3   1.022681   109.891   177.579
 H      7   6   4   1.103457   107.842    76.978
 H      7   6   4   1.090979   105.878   195.151

---------------------------
INTERNAL COORDINATES (A.U.)
---------------------------
 C      0   0   0   0.000000     0.000     0.000
 C      1   0   0   2.868322     0.000     0.000
 C      2   1   0   2.896112   113.563     0.000
 C      3   2   1   2.855657   112.166   168.642
 N      4   3   2   2.389240   121.913   148.233
 O      4   3   2   2.589380   115.737   323.437
 C      6   4   3   2.706445   117.103    34.258
 O      7   6   4   2.616524   113.683   313.638
 H      1   2   3   2.067773   110.332   300.789
 H      1   2   3   2.067123   110.351    60.757
 H      1   2   3   2.065579   110.467   180.919
 H      2   1   3   2.085362   109.729   237.353
 H      3   2   1   2.062364   112.167   291.322
 H      3   2   1   2.074178   108.046    50.191
 H      5   4   3   1.932587   109.891   177.579
 H      7   6   4   2.085231   107.842    76.978
 H      7   6   4   2.061651   105.878   195.151

---------------------
BASIS SET INFORMATION
---------------------
There are 4 groups of distinct atoms

 Group   1 Type C   : 11s6p2d1f contracted to 5s3p2d1f pattern {62111/411/11/1}
 Group   2 Type N   : 11s6p2d1f contracted to 5s3p2d1f pattern {62111/411/11/1}
 Group   3 Type O   : 11s6p2d1f contracted to 5s3p2d1f pattern {62111/411/11/1}
 Group   4 Type H   : 5s1p contracted to 3s1p pattern {311/1}

Atom   0C    basis set group =>   1
Atom   1C    basis set group =>   1
Atom   2C    basis set group =>   1
Atom   3C    basis set group =>   1
Atom   4N    basis set group =>   2
Atom   5O    basis set group =>   3
Atom   6C    basis set group =>   1
Atom   7O    basis set group =>   3
Atom   8H    basis set group =>   4
Atom   9H    basis set group =>   4
Atom  10H    basis set group =>   4
Atom  11H    basis set group =>   4
Atom  12H    basis set group =>   4
Atom  13H    basis set group =>   4
Atom  14H    basis set group =>   4
Atom  15H    basis set group =>   4
Atom  16H    basis set group =>   4
-------------------------------
AUXILIARY BASIS SET INFORMATION
-------------------------------
There are 4 groups of distinct atoms

 Group   1 Type C   : 14s10p6d2f1g contracted to 10s8p5d1f1g pattern {5111111111/31111111/21111/2/1}
 Group   2 Type N   : 14s10p6d2f1g contracted to 10s8p4d2f1g pattern {5111111111/31111111/3111/11/1}
 Group   3 Type O   : 14s10p6d2f1g contracted to 10s8p4d2f1g pattern {5111111111/31111111/3111/11/1}
 Group   4 Type H   : 4s2p2d contracted to 2s2p2d pattern {31/11/11}

Atom   0C    basis set group =>   1
Atom   1C    basis set group =>   1
Atom   2C    basis set group =>   1
Atom   3C    basis set group =>   1
Atom   4N    basis set group =>   2
Atom   5O    basis set group =>   3
Atom   6C    basis set group =>   1
Atom   7O    basis set group =>   3
Atom   8H    basis set group =>   4
Atom   9H    basis set group =>   4
Atom  10H    basis set group =>   4
Atom  11H    basis set group =>   4
Atom  12H    basis set group =>   4
Atom  13H    basis set group =>   4
Atom  14H    basis set group =>   4
Atom  15H    basis set group =>   4
Atom  16H    basis set group =>   4
------------------------------------------------------------------------------
                           ORCA GTO INTEGRAL CALCULATION
                           -- RI-GTO INTEGRALS CHOSEN --
------------------------------------------------------------------------------

                         BASIS SET STATISTICS AND STARTUP INFO

Gaussian basis set:
 # of primitive gaussian shells          ...  214
 # of primitive gaussian functions       ...  440
 # of contracted shells                  ...  124
 # of contracted basis functions         ...  302
 Highest angular momentum                ...    3
 Maximum contraction depth               ...    6
Auxiliary gaussian basis set:
 # of primitive gaussian shells          ...  336
 # of primitive gaussian functions       ...  956
 # of contracted shells                  ...  254
 # of contracted aux-basis functions     ...  768
 Highest angular momentum                ...    4
 Maximum contraction depth               ...    5
Ratio of auxiliary to basis functions    ...  2.54
Integral package used                  ... LIBINT
 One Electron integrals                  ... done
 Ordering auxiliary basis shells         ... done
 Integral threshhold             Thresh  ...  2.500e-11
 Primitive cut-off               TCut    ...  2.500e-12
 Pre-screening matrix                    ... done
 Shell pair data                         ... 
 Ordering of the shell pairs             ... done (   0.001 sec) 7176 of 7750 pairs
 Determination of significant pairs      ... done (   0.000 sec)
 Creation of shell pair data             ... done (   0.002 sec)
 Storage of shell pair data              ... done (   0.001 sec)
 Shell pair data done in (   0.004 sec)
 Computing two index integrals           ... done
 Cholesky decomposition of the V-matrix  ... done


Timings:
 Total evaluation time                   ...   0.334 sec (  0.006 min)
 One electron matrix time                ...   0.071 sec (  0.001 min) = 21.3%
 Schwartz matrix evaluation time         ...   0.186 sec (  0.003 min) = 55.8%
 Two index repulsion integral time       ...   0.019 sec (  0.000 min) =  5.7%
 Cholesky decomposition of V             ...   0.025 sec (  0.000 min) =  7.5%
 Three index repulsion integral time     ...   0.000 sec (  0.000 min) =  0.0%

-------------------------------------------------------------------------------
                                 ORCA SCF
-------------------------------------------------------------------------------

------------
SCF SETTINGS
------------
Hamiltonian:
 Ab initio Hamiltonian  Method          .... Hartree-Fock(GTOs)
 RI-approximation to the Coulomb term is turned on
   Number of auxiliary basis functions  .... 768
   RI-JK (J+K treated both via RI)      .... on


General Settings:
 Integral files         IntName         .... dsgdb9nsd_007779
 Hartree-Fock type      HFTyp           .... RHF
 Total Charge           Charge          ....    0
 Multiplicity           Mult            ....    1
 Number of Electrons    NEL             ....   62
 Basis Dimension        Dim             ....  302
 Nuclear Repulsion      ENuc            ....    399.5055433191 Eh

Convergence Acceleration:
 DIIS                   CNVDIIS         .... on
   Start iteration      DIISMaxIt       ....    12
   Startup error        DIISStart       ....  0.200000
   # of expansion vecs  DIISMaxEq       ....     5
   Bias factor          DIISBfac        ....   1.050
   Max. coefficient     DIISMaxC        ....  10.000
 Newton-Raphson         CNVNR           .... off
 SOSCF                  CNVSOSCF        .... on
   Start iteration      SOSCFMaxIt      ....   150
   Startup grad/error   SOSCFStart      ....  0.003300
 Level Shifting         CNVShift        .... on
   Level shift para.    LevelShift      ....    0.2500
   Turn off err/grad.   ShiftErr        ....    0.0010
 Zerner damping         CNVZerner       .... off
 Static damping         CNVDamp         .... on
   Fraction old density DampFac         ....    0.7000
   Max. Damping (<1)    DampMax         ....    0.9800
   Min. Damping (>=0)   DampMin         ....    0.0000
   Turn off err/grad.   DampErr         ....    0.1000
 Fernandez-Rico         CNVRico         .... off

SCF Procedure:
 Maximum # iterations   MaxIter         ....   125
 SCF integral mode      SCFMode         .... Direct
   Integral package                     .... LIBINT
 Reset frequeny         DirectResetFreq ....    20
 Integral Threshold     Thresh          ....  2.500e-11 Eh
 Primitive CutOff       TCut            ....  2.500e-12 Eh

Convergence Tolerance:
 Convergence Check Mode ConvCheckMode   .... Total+1el-Energy
 Energy Change          TolE            ....  1.000e-08 Eh
 1-El. energy change                    ....  1.000e-05 Eh
 Orbital Gradient       TolG            ....  1.000e-05
 Orbital Rotation angle TolX            ....  1.000e-05
 DIIS Error             TolErr          ....  5.000e-07


Diagonalization of the overlap matrix:
Smallest eigenvalue                        ... 1.041e-04
Time for diagonalization                   ...    0.025 sec
Threshold for overlap eigenvalues          ... 1.000e-08
Number of eigenvalues below threshold      ... 0
Time for construction of square roots      ...    0.013 sec
Total time needed                          ...    0.038 sec

-------------------
DFT GRID GENERATION
-------------------

General Integration Accuracy     IntAcc      ...  4.340
Radial Grid Type                 RadialGrid  ... Gauss-Chebyshev
Angular Grid (max. acc.)         AngularGrid ... Lebedev-110
Angular grid pruning method      GridPruning ... 3 (G Style)
Weight generation scheme         WeightScheme... Becke
Basis function cutoff            BFCut       ...    1.0000e-11
Integration weight cutoff        WCut        ...    1.0000e-14
Grids for H and He will be reduced by one unit

# of grid points (after initial pruning)     ...  20560 (   0.0 sec)
# of grid points (after weights+screening)   ...  18998 (   0.1 sec)
nearest neighbour list constructed           ...    0.0 sec
Grid point re-assignment to atoms done       ...    0.0 sec
Grid point division into batches done        ...    0.0 sec
Reduced shell lists constructed in    1.1 sec

Total number of grid points                  ...    18998
Total number of batches                      ...      305
Average number of points per batch           ...       62
Average number of grid points per atom       ...     1118
Average number of shells per batch           ...    85.33 (68.82%)
Average number of basis functions per batch  ...   212.67 (70.42%)
Average number of large shells per batch     ...    66.80 (78.29%)
Average number of large basis fcns per batch ...   163.96 (77.10%)
Average number of aux-shells per batch       ...    85.33 (33.60%)
Average number of aux functions per batch    ...   212.67 (  inf%)
Maximum spatial batch extension              ...  22.85, 19.15, 20.50 au
Average spatial batch extension              ...   3.92,  3.48,  3.49 au

Time for grid setup =    1.234 sec

------------------------------
INITIAL GUESS: MODEL POTENTIAL
------------------------------
Loading Hartree-Fock densities                     ... done
Calculating cut-offs                               ... done
Setting up the integral package                    ... done
Initializing the effective Hamiltonian             ... done
Starting the Coulomb interaction                   ... done (   0.5 sec)
Reading the grid                                   ... done
Mapping shells                                     ... done
Starting the XC term evaluation                    ... done (   0.6 sec)
Transforming the Hamiltonian                       ... done (   0.0 sec)
Diagonalizing the Hamiltonian                      ... done (   0.0 sec)
Back transforming the eigenvectors                 ... done (   0.0 sec)
Now organizing SCF variables                       ... done
                      ------------------
                      INITIAL GUESS DONE (   2.5 sec)
                      ------------------
--------------
SCF ITERATIONS
--------------
ITER       Energy         Delta-E        Max-DP      RMS-DP      [F,P]     Damp
  0   -398.5230925587   0.000000000000 0.04494703  0.00082754  0.3084584 0.7000
  1   -398.3884194991   0.134673059636 0.04549003  0.00092052  0.3031932 0.7000
                               ***Turning on DIIS***
  2   -398.4319033963  -0.043483897231 0.03213082  0.00067141  0.1905988 0.7000
  3   -399.3105997815  -0.878696385199 0.01490885  0.00035071  0.1264667 0.7000
  4   -398.7955181074   0.515081674075 0.06018920  0.00086863  0.0837491 0.0000
  5   -398.8049777844  -0.009459676919 0.01420312  0.00024550  0.0246247 0.0000
  6   -398.7880339793   0.016943805079 0.00555907  0.00011710  0.0204311 0.0000
  7   -398.8144610699  -0.026427090632 0.00300893  0.00007265  0.0131105 0.0000
  8   -398.8290234379  -0.014562368001 0.00304058  0.00005646  0.0077628 0.0000
                      *** Initiating the SOSCF procedure ***
                           *** Shutting down DIIS ***
                      *** Re-Reading the Fockian *** 
                      *** Removing any level shift *** 
ITER      Energy       Delta-E        Grad      Rot      Max-DP    RMS-DP
  9   -398.89113358  -0.0621101455  0.000497  0.000497  0.000596  0.000014
 10   -398.89610370  -0.0049701159  0.000251  0.000468  0.000417  0.000011
 11   -398.89610621  -0.0000025097  0.000094  0.000467  0.000527  0.000013
 12   -398.89610721  -0.0000010030  0.000043  0.000042  0.000098  0.000003
 13   -398.89610730  -0.0000000860  0.000009  0.000020  0.000038  0.000001
                  ***Gradient check signals convergence***
              ***Rediagonalizing the Fockian in SOSCF/NRSCF***

               *****************************************************
               *                     SUCCESS                       *
               *           SCF CONVERGED AFTER  14 CYCLES          *
               *****************************************************


----------------
TOTAL SCF ENERGY
----------------

Total Energy       :         -398.89610730 Eh          -10854.51491 eV

Components:
Nuclear Repulsion  :          399.50554332 Eh           10871.09851 eV
Electronic Energy  :         -798.40165062 Eh          -21725.61342 eV

One Electron Energy:        -1336.23689204 Eh          -36360.85438 eV
Two Electron Energy:          537.83524142 Eh           14635.24096 eV

Virial components:
Potential Energy   :         -797.23361786 Eh          -21693.82964 eV
Kinetic Energy     :          398.33751056 Eh           10839.31472 eV
Virial Ratio       :            2.00140232


---------------
SCF CONVERGENCE
---------------

  Last Energy change         ...   -5.8965e-09  Tolerance :   1.0000e-08
  Last MAX-Density change    ...    1.0835e-05  Tolerance :   1.0000e-07
  Last RMS-Density change    ...    2.6921e-07  Tolerance :   5.0000e-09
  Last Orbital Gradient      ...    2.1222e-06  Tolerance :   1.0000e-05
  Last Orbital Rotation      ...    5.2550e-06  Tolerance :   1.0000e-05

             **** THE GBW FILE WAS UPDATED (dsgdb9nsd_007779.gbw) ****
             **** DENSITY FILE WAS UPDATED (dsgdb9nsd_007779.scfp.tmp) ****
             **** ENERGY FILE WAS UPDATED (dsgdb9nsd_007779.en.tmp) ****
----------------
ORBITAL ENERGIES
----------------

  NO   OCC          E(Eh)            E(eV) 
   0   2.0000     -20.593869      -560.3877 
   1   2.0000     -20.581636      -560.0548 
   2   2.0000     -15.534955      -422.7276 
   3   2.0000     -11.350028      -308.8500 
   4   2.0000     -11.339262      -308.5570 
   5   2.0000     -11.303162      -307.5747 
   6   2.0000     -11.243826      -305.9601 
   7   2.0000     -11.230008      -305.5840 
   8   2.0000      -1.453683       -39.5567 
   9   2.0000      -1.382308       -37.6145 
  10   2.0000      -1.198860       -32.6226 
  11   2.0000      -1.080011       -29.3886 
  12   2.0000      -0.980395       -26.6779 
  13   2.0000      -0.935595       -25.4588 
  14   2.0000      -0.841422       -22.8963 
  15   2.0000      -0.775450       -21.1011 
  16   2.0000      -0.716280       -19.4910 
  17   2.0000      -0.701091       -19.0776 
  18   2.0000      -0.683235       -18.5918 
  19   2.0000      -0.652455       -17.7542 
  20   2.0000      -0.627623       -17.0785 
  21   2.0000      -0.606403       -16.5011 
  22   2.0000      -0.569258       -15.4903 
  23   2.0000      -0.553501       -15.0615 
  24   2.0000      -0.548972       -14.9383 
  25   2.0000      -0.521313       -14.1857 
  26   2.0000      -0.499756       -13.5991 
  27   2.0000      -0.481522       -13.1029 
  28   2.0000      -0.456929       -12.4337 
  29   2.0000      -0.438377       -11.9289 
  30   2.0000      -0.401856       -10.9351 
  31   0.0000       0.132094         3.5945 
  32   0.0000       0.152256         4.1431 
  33   0.0000       0.163531         4.4499 
  34   0.0000       0.174949         4.7606 
  35   0.0000       0.185702         5.0532 
  36   0.0000       0.196276         5.3409 
  37   0.0000       0.213327         5.8049 
  38   0.0000       0.218771         5.9531 
  39   0.0000       0.226279         6.1574 
  40   0.0000       0.232970         6.3394 
  41   0.0000       0.247763         6.7420 
  42   0.0000       0.261129         7.1057 
  43   0.0000       0.267384         7.2759 
  44   0.0000       0.299721         8.1558 
  45   0.0000       0.311526         8.4770 
  46   0.0000       0.317085         8.6283 
  47   0.0000       0.331748         9.0273 
  48   0.0000       0.351890         9.5754 
  49   0.0000       0.373191        10.1550 
  50   0.0000       0.395662        10.7665 
  51   0.0000       0.406228        11.0540 
  52   0.0000       0.426579        11.6078 
  53   0.0000       0.431993        11.7551 
  54   0.0000       0.450741        12.2653 
  55   0.0000       0.470282        12.7970 
  56   0.0000       0.487227        13.2581 
  57   0.0000       0.498062        13.5530 
  58   0.0000       0.511140        13.9088 
  59   0.0000       0.521879        14.2010 
  60   0.0000       0.527670        14.3586 
  61   0.0000       0.539022        14.6675 
  62   0.0000       0.548149        14.9159 
  63   0.0000       0.565610        15.3910 
  64   0.0000       0.583672        15.8825 
  65   0.0000       0.594056        16.1651 
  66   0.0000       0.598499        16.2860 
  67   0.0000       0.605727        16.4827 
  68   0.0000       0.617498        16.8030 
  69   0.0000       0.618106        16.8195 
  70   0.0000       0.640095        17.4179 
  71   0.0000       0.647349        17.6153 
  72   0.0000       0.656890        17.8749 
  73   0.0000       0.670210        18.2374 
  74   0.0000       0.686280        18.6746 
  75   0.0000       0.700543        19.0627 
  76   0.0000       0.728173        19.8146 
  77   0.0000       0.737260        20.0619 
  78   0.0000       0.752784        20.4843 
  79   0.0000       0.772702        21.0263 
  80   0.0000       0.796310        21.6687 
  81   0.0000       0.801408        21.8074 
  82   0.0000       0.826700        22.4956 
  83   0.0000       0.835075        22.7235 
  84   0.0000       0.851793        23.1785 
  85   0.0000       0.875738        23.8300 
  86   0.0000       0.909722        24.7548 
  87   0.0000       0.930458        25.3190 
  88   0.0000       0.949667        25.8417 
  89   0.0000       0.967440        26.3254 
  90   0.0000       0.991633        26.9837 
  91   0.0000       1.007902        27.4264 
  92   0.0000       1.031515        28.0689 
  93   0.0000       1.052330        28.6353 
  94   0.0000       1.086127        29.5550 
  95   0.0000       1.110237        30.2111 
  96   0.0000       1.116432        30.3797 
  97   0.0000       1.133814        30.8527 
  98   0.0000       1.148991        31.2656 
  99   0.0000       1.180321        32.1182 
 100   0.0000       1.198733        32.6192 
 101   0.0000       1.211221        32.9590 
 102   0.0000       1.245415        33.8895 
 103   0.0000       1.264513        34.4092 
 104   0.0000       1.314047        35.7570 
 105   0.0000       1.325590        36.0711 
 106   0.0000       1.355830        36.8940 
 107   0.0000       1.370782        37.3009 
 108   0.0000       1.384554        37.6756 
 109   0.0000       1.413395        38.4604 
 110   0.0000       1.452529        39.5253 
 111   0.0000       1.474639        40.1270 
 112   0.0000       1.521711        41.4079 
 113   0.0000       1.525747        41.5177 
 114   0.0000       1.552231        42.2383 
 115   0.0000       1.581592        43.0373 
 116   0.0000       1.625004        44.2186 
 117   0.0000       1.648508        44.8582 
 118   0.0000       1.691712        46.0338 
 119   0.0000       1.751399        47.6580 
 120   0.0000       1.766944        48.0810 
 121   0.0000       1.784781        48.5664 
 122   0.0000       1.799861        48.9767 
 123   0.0000       1.810817        49.2748 
 124   0.0000       1.819801        49.5193 
 125   0.0000       1.845976        50.2315 
 126   0.0000       1.855142        50.4810 
 127   0.0000       1.877860        51.0992 
 128   0.0000       1.888685        51.3937 
 129   0.0000       1.904648        51.8281 
 130   0.0000       1.915357        52.1195 
 131   0.0000       1.934636        52.6441 
 132   0.0000       1.968061        53.5537 
 133   0.0000       1.985532        54.0291 
 134   0.0000       1.997442        54.3531 
 135   0.0000       2.019201        54.9453 
 136   0.0000       2.050409        55.7945 
 137   0.0000       2.089668        56.8628 
 138   0.0000       2.093946        56.9792 
 139   0.0000       2.113468        57.5104 
 140   0.0000       2.147464        58.4355 
 141   0.0000       2.182037        59.3762 
 142   0.0000       2.197391        59.7941 
 143   0.0000       2.216602        60.3168 
 144   0.0000       2.238996        60.9262 
 145   0.0000       2.254332        61.3435 
 146   0.0000       2.273275        61.8590 
 147   0.0000       2.281194        62.0744 
 148   0.0000       2.300300        62.5943 
 149   0.0000       2.322022        63.1854 
 150   0.0000       2.354766        64.0764 
 151   0.0000       2.374348        64.6093 
 152   0.0000       2.400487        65.3206 
 153   0.0000       2.421964        65.9050 
 154   0.0000       2.442010        66.4505 
 155   0.0000       2.453758        66.7702 
 156   0.0000       2.518028        68.5190 
 157   0.0000       2.549148        69.3659 
 158   0.0000       2.572085        69.9900 
 159   0.0000       2.598152        70.6993 
 160   0.0000       2.620413        71.3051 
 161   0.0000       2.622052        71.3497 
 162   0.0000       2.643412        71.9309 
 163   0.0000       2.652881        72.1886 
 164   0.0000       2.682112        72.9840 
 165   0.0000       2.702856        73.5484 
 166   0.0000       2.709875        73.7394 
 167   0.0000       2.754202        74.9457 
 168   0.0000       2.758164        75.0535 
 169   0.0000       2.784303        75.7647 
 170   0.0000       2.795477        76.0688 
 171   0.0000       2.814310        76.5813 
 172   0.0000       2.839493        77.2665 
 173   0.0000       2.861372        77.8619 
 174   0.0000       2.867010        78.0153 
 175   0.0000       2.895335        78.7861 
 176   0.0000       2.903343        79.0040 
 177   0.0000       2.929140        79.7059 
 178   0.0000       2.942142        80.0598 
 179   0.0000       2.953753        80.3757 
 180   0.0000       2.983279        81.1792 
 181   0.0000       3.011039        81.9345 
 182   0.0000       3.058503        83.2261 
 183   0.0000       3.069577        83.5274 
 184   0.0000       3.075699        83.6940 
 185   0.0000       3.116247        84.7974 
 186   0.0000       3.128009        85.1174 
 187   0.0000       3.170733        86.2800 
 188   0.0000       3.230913        87.9176 
 189   0.0000       3.240605        88.1813 
 190   0.0000       3.272999        89.0628 
 191   0.0000       3.281750        89.3010 
 192   0.0000       3.323754        90.4440 
 193   0.0000       3.345169        91.0267 
 194   0.0000       3.364709        91.5584 
 195   0.0000       3.394261        92.3625 
 196   0.0000       3.408362        92.7463 
 197   0.0000       3.428440        93.2926 
 198   0.0000       3.442422        93.6731 
 199   0.0000       3.452263        93.9409 
 200   0.0000       3.495108        95.1067 
 201   0.0000       3.509003        95.4848 
 202   0.0000       3.514648        95.6384 
 203   0.0000       3.534256        96.1720 
 204   0.0000       3.557617        96.8077 
 205   0.0000       3.573218        97.2322 
 206   0.0000       3.581801        97.4658 
 207   0.0000       3.601888        98.0124 
 208   0.0000       3.624527        98.6284 
 209   0.0000       3.630065        98.7791 
 210   0.0000       3.635943        98.9390 
 211   0.0000       3.662324        99.6569 
 212   0.0000       3.684876       100.2706 
 213   0.0000       3.715019       101.0908 
 214   0.0000       3.720346       101.2358 
 215   0.0000       3.731275       101.5332 
 216   0.0000       3.770659       102.6048 
 217   0.0000       3.788492       103.0901 
 218   0.0000       3.796801       103.3162 
 219   0.0000       3.819975       103.9468 
 220   0.0000       3.850877       104.7877 
 221   0.0000       3.869195       105.2862 
 222   0.0000       3.883010       105.6621 
 223   0.0000       3.899361       106.1070 
 224   0.0000       3.922577       106.7388 
 225   0.0000       3.948273       107.4380 
 226   0.0000       3.993029       108.6558 
 227   0.0000       4.005684       109.0002 
 228   0.0000       4.011138       109.1486 
 229   0.0000       4.038116       109.8827 
 230   0.0000       4.076245       110.9203 
 231   0.0000       4.120927       112.1361 
 232   0.0000       4.145114       112.7943 
 233   0.0000       4.183408       113.8363 
 234   0.0000       4.215012       114.6963 
 235   0.0000       4.254311       115.7657 
 236   0.0000       4.315721       117.4367 
 237   0.0000       4.351990       118.4237 
 238   0.0000       4.386855       119.3724 
 239   0.0000       4.417508       120.2065 
 240   0.0000       4.497233       122.3759 
 241   0.0000       4.511339       122.7598 
 242   0.0000       4.564679       124.2112 
 243   0.0000       4.608937       125.4156 
 244   0.0000       4.631403       126.0269 
 245   0.0000       4.640384       126.2713 
 246   0.0000       4.737731       128.9202 
 247   0.0000       4.774303       129.9154 
 248   0.0000       4.806207       130.7835 
 249   0.0000       4.844469       131.8247 
 250   0.0000       4.864130       132.3597 
 251   0.0000       4.880804       132.8134 
 252   0.0000       4.901359       133.3728 
 253   0.0000       4.990386       135.7953 
 254   0.0000       5.012321       136.3922 
 255   0.0000       5.059934       137.6878 
 256   0.0000       5.098357       138.7334 
 257   0.0000       5.109502       139.0366 
 258   0.0000       5.163038       140.4934 
 259   0.0000       5.267474       143.3352 
 260   0.0000       5.283235       143.7641 
 261   0.0000       5.339380       145.2919 
 262   0.0000       5.380513       146.4112 
 263   0.0000       5.509446       149.9197 
 264   0.0000       5.578859       151.8085 
 265   0.0000       5.628050       153.1470 
 266   0.0000       5.647970       153.6891 
 267   0.0000       5.742832       156.2704 
 268   0.0000       5.747704       156.4030 
 269   0.0000       5.832557       158.7119 
 270   0.0000       5.873939       159.8380 
 271   0.0000       5.950050       161.9091 
 272   0.0000       6.017334       163.7400 
 273   0.0000       6.145025       167.2146 
 274   0.0000       6.152724       167.4241 
 275   0.0000       6.198887       168.6803 
 276   0.0000       6.307799       171.6439 
 277   0.0000       6.340556       172.5353 
 278   0.0000       6.404804       174.2836 
 279   0.0000       6.529785       177.6845 
 280   0.0000       6.663713       181.3289 
 281   0.0000       6.686952       181.9612 
 282   0.0000       6.753487       183.7717 
 283   0.0000       6.984641       190.0617 
 284   0.0000       7.181274       195.4124 
 285   0.0000       7.240602       197.0268 
 286   0.0000       7.247525       197.2152 
 287   0.0000       7.309913       198.9128 
 288   0.0000       7.389922       201.0900 
 289   0.0000       7.470745       203.2893 
 290   0.0000       7.656320       208.3391 
 291   0.0000       7.768566       211.3934 
 292   0.0000       7.813860       212.6259 
 293   0.0000       7.864534       214.0048 
 294   0.0000      23.433988       637.6712 
 295   0.0000      23.529231       640.2629 
 296   0.0000      23.590706       641.9358 
 297   0.0000      23.734950       645.8608 
 298   0.0000      24.186851       658.1577 
 299   0.0000      33.372444       908.1104 
 300   0.0000      45.739658      1244.6394 
 301   0.0000      45.766356      1245.3659 

                    ********************************
                    * MULLIKEN POPULATION ANALYSIS *
                    ********************************

-----------------------
MULLIKEN ATOMIC CHARGES
-----------------------
   0 C :   -0.305406
   1 C :    0.149177
   2 C :   -0.077134
   3 C :    0.213759
   4 N :   -0.463106
   5 O :   -0.375724
   6 C :    0.188635
   7 O :   -0.392550
   8 H :    0.111251
   9 H :    0.105629
  10 H :    0.120166
  11 H :    0.067395
  12 H :    0.120113
  13 H :    0.108120
  14 H :    0.224145
  15 H :    0.083710
  16 H :    0.121821
Sum of atomic charges:   -0.0000000

--------------------------------
MULLIKEN REDUCED ORBITAL CHARGES
--------------------------------
  0 C s       :     3.216419  s :     3.216419
      pz      :     1.053603  p :     3.015028
      px      :     1.059105
      py      :     0.902321
      dz2     :     0.013165  d :     0.069370
      dxz     :     0.011854
      dyz     :     0.012878
      dx2y2   :     0.014784
      dxy     :     0.016689
      f0      :     0.000309  f :     0.004589
      f+1     :     0.001083
      f-1     :     0.000720
      f+2     :     0.000432
      f-2     :     0.000104
      f+3     :     0.000733
      f-3     :     0.001207
  1 C s       :     3.112019  s :     3.112019
      pz      :     0.743088  p :     2.537947
      px      :     0.859025
      py      :     0.935833
      dz2     :     0.050223  d :     0.187194
      dxz     :     0.029885
      dyz     :     0.037420
      dx2y2   :     0.037745
      dxy     :     0.031921
      f0      :     0.002602  f :     0.013663
      f+1     :     0.002309
      f-1     :     0.001873
      f+2     :     0.002381
      f-2     :     0.001671
      f+3     :     0.001260
      f-3     :     0.001566
  2 C s       :     3.068875  s :     3.068875
      pz      :     0.983759  p :     2.911759
      px      :     1.028524
      py      :     0.899476
      dz2     :     0.019551  d :     0.090181
      dxz     :     0.017516
      dyz     :     0.014749
      dx2y2   :     0.021164
      dxy     :     0.017202
      f0      :     0.000829  f :     0.006320
      f+1     :     0.001431
      f-1     :     0.000932
      f+2     :     0.000984
      f-2     :     0.000388
      f+3     :     0.000621
      f-3     :     0.001134
  3 C s       :     3.111233  s :     3.111233
      pz      :     0.733936  p :     2.415764
      px      :     0.774200
      py      :     0.907629
      dz2     :     0.074675  d :     0.238363
      dxz     :     0.056303
      dyz     :     0.052256
      dx2y2   :     0.024869
      dxy     :     0.030261
      f0      :     0.004784  f :     0.020880
      f+1     :     0.002778
      f-1     :     0.004230
      f+2     :     0.003212
      f-2     :     0.003049
      f+3     :     0.001522
      f-3     :     0.001305
  4 N s       :     3.600652  s :     3.600652
      pz      :     1.464496  p :     3.804510
      px      :     1.248406
      py      :     1.091608
      dz2     :     0.013682  d :     0.054646
      dxz     :     0.014786
      dyz     :     0.015635
      dx2y2   :     0.006021
      dxy     :     0.004522
      f0      :     0.000455  f :     0.003298
      f+1     :     0.000289
      f-1     :     0.000668
      f+2     :     0.000493
      f-2     :     0.000566
      f+3     :     0.000464
      f-3     :     0.000364
  5 O s       :     3.760463  s :     3.760463
      pz      :     1.197806  p :     4.573197
      px      :     1.686572
      py      :     1.688819
      dz2     :     0.007516  d :     0.039907
      dxz     :     0.011018
      dyz     :     0.013524
      dx2y2   :     0.003242
      dxy     :     0.004605
      f0      :     0.000522  f :     0.002157
      f+1     :     0.000441
      f-1     :     0.000525
      f+2     :     0.000174
      f-2     :     0.000339
      f+3     :     0.000083
      f-3     :     0.000073
  6 C s       :     3.149529  s :     3.149529
      pz      :     0.816636  p :     2.458909
      px      :     0.983373
      py      :     0.658900
      dz2     :     0.030248  d :     0.185948
      dxz     :     0.029037
      dyz     :     0.048354
      dx2y2   :     0.036743
      dxy     :     0.041566
      f0      :     0.002381  f :     0.016979
      f+1     :     0.002179
      f-1     :     0.002468
      f+2     :     0.003478
      f-2     :     0.001219
      f+3     :     0.003081
      f-3     :     0.002174
  7 O s       :     3.778670  s :     3.778670
      pz      :     1.559270  p :     4.570470
      px      :     1.707163
      py      :     1.304037
      dz2     :     0.009255  d :     0.041284
      dxz     :     0.008228
      dyz     :     0.005821
      dx2y2   :     0.012537
      dxy     :     0.005443
      f0      :     0.000205  f :     0.002127
      f+1     :     0.000355
      f-1     :     0.000303
      f+2     :     0.000290
      f-2     :     0.000223
      f+3     :     0.000279
      f-3     :     0.000472
  8 H s       :     0.866924  s :     0.866924
      pz      :     0.003638  p :     0.021826
      px      :     0.012956
      py      :     0.005231
  9 H s       :     0.872654  s :     0.872654
      pz      :     0.009736  p :     0.021717
      px      :     0.006660
      py      :     0.005321
 10 H s       :     0.857892  s :     0.857892
      pz      :     0.011731  p :     0.021942
      px      :     0.005356
      py      :     0.004855
 11 H s       :     0.911141  s :     0.911141
      pz      :     0.002664  p :     0.021464
      px      :     0.014098
      py      :     0.004702
 12 H s       :     0.857168  s :     0.857168
      pz      :     0.012103  p :     0.022719
      px      :     0.006923
      py      :     0.003693
 13 H s       :     0.869223  s :     0.869223
      pz      :     0.003941  p :     0.022658
      px      :     0.012533
      py      :     0.006184
 14 H s       :     0.740811  s :     0.740811
      pz      :     0.008177  p :     0.035044
      px      :     0.008384
      py      :     0.018484
 15 H s       :     0.895792  s :     0.895792
      pz      :     0.002610  p :     0.020499
      px      :     0.014169
      py      :     0.003719
 16 H s       :     0.856741  s :     0.856741
      pz      :     0.011152  p :     0.021439
      px      :     0.007236
      py      :     0.003050


                     *******************************
                     * LOEWDIN POPULATION ANALYSIS *
                     *******************************

----------------------
LOEWDIN ATOMIC CHARGES
----------------------
   0 C :   -0.252703
   1 C :   -0.305075
   2 C :   -0.174956
   3 C :   -0.356102
   4 N :   -0.085897
   5 O :    0.169867
   6 C :   -0.312737
   7 O :    0.144902
   8 H :    0.119233
   9 H :    0.118868
  10 H :    0.118785
  11 H :    0.131321
  12 H :    0.147977
  13 H :    0.150204
  14 H :    0.162919
  15 H :    0.104768
  16 H :    0.118625

-------------------------------
LOEWDIN REDUCED ORBITAL CHARGES
-------------------------------
  0 C s       :     2.826936  s :     2.826936
      pz      :     1.055412  p :     3.134235
      px      :     1.059689
      py      :     1.019134
      dz2     :     0.044476  d :     0.266777
      dxz     :     0.036663
      dyz     :     0.059728
      dx2y2   :     0.058253
      dxy     :     0.067657
      f0      :     0.002055  f :     0.024755
      f+1     :     0.003215
      f-1     :     0.003817
      f+2     :     0.003264
      f-2     :     0.002250
      f+3     :     0.005378
      f-3     :     0.004777
  1 C s       :     2.747491  s :     2.747491
      pz      :     0.868422  p :     2.809110
      px      :     0.931383
      py      :     1.009304
      dz2     :     0.173617  d :     0.661579
      dxz     :     0.124142
      dyz     :     0.125236
      dx2y2   :     0.136185
      dxy     :     0.102400
      f0      :     0.016110  f :     0.086895
      f+1     :     0.014910
      f-1     :     0.011602
      f+2     :     0.016584
      f-2     :     0.012433
      f+3     :     0.008302
      f-3     :     0.006954
  2 C s       :     2.769365  s :     2.769365
      pz      :     1.004154  p :     3.004922
      px      :     1.018811
      py      :     0.981957
      dz2     :     0.077810  d :     0.364393
      dxz     :     0.072807
      dyz     :     0.066241
      dx2y2   :     0.078856
      dxy     :     0.068679
      f0      :     0.005245  f :     0.036276
      f+1     :     0.005251
      f-1     :     0.006051
      f+2     :     0.006576
      f-2     :     0.003109
      f+3     :     0.004127
      f-3     :     0.005917
  3 C s       :     2.745661  s :     2.745661
      pz      :     0.905552  p :     2.661463
      px      :     0.753047
      py      :     1.002864
      dz2     :     0.247928  d :     0.827990
      dxz     :     0.165372
      dyz     :     0.218061
      dx2y2   :     0.097078
      dxy     :     0.099551
      f0      :     0.029292  f :     0.120987
      f+1     :     0.014850
      f-1     :     0.026233
      f+2     :     0.020224
      f-2     :     0.018391
      f+3     :     0.006121
      f-3     :     0.005877
  4 N s       :     3.159744  s :     3.159744
      pz      :     1.483744  p :     3.784545
      px      :     1.168384
      py      :     1.132417
      dz2     :     0.037585  d :     0.129232
      dxz     :     0.016463
      dyz     :     0.040272
      dx2y2   :     0.023894
      dxy     :     0.011019
      f0      :     0.002855  f :     0.012376
      f+1     :     0.000832
      f-1     :     0.003332
      f+2     :     0.002268
      f-2     :     0.001589
      f+3     :     0.000701
      f-3     :     0.000799
  5 O s       :     3.263274  s :     3.263274
      pz      :     1.259955  p :     4.461653
      px      :     1.603167
      py      :     1.598531
      dz2     :     0.030437  d :     0.099268
      dxz     :     0.026640
      dyz     :     0.029772
      dx2y2   :     0.006278
      dxy     :     0.006141
      f0      :     0.001498  f :     0.005937
      f+1     :     0.001017
      f-1     :     0.001164
      f+2     :     0.000793
      f-2     :     0.001203
      f+3     :     0.000133
      f-3     :     0.000129
  6 C s       :     2.805615  s :     2.805615
      pz      :     0.873253  p :     2.713901
      px      :     1.026438
      py      :     0.814210
      dz2     :     0.112832  d :     0.682640
      dxz     :     0.106005
      dyz     :     0.166698
      dx2y2   :     0.154637
      dxy     :     0.142467
      f0      :     0.015071  f :     0.110581
      f+1     :     0.010936
      f-1     :     0.018650
      f+2     :     0.020205
      f-2     :     0.011537
      f+3     :     0.020333
      f-3     :     0.013848
  7 O s       :     3.269371  s :     3.269371
      pz      :     1.501062  p :     4.474411
      px      :     1.618209
      py      :     1.355140
      dz2     :     0.021742  d :     0.104785
      dxz     :     0.015218
      dyz     :     0.020344
      dx2y2   :     0.028506
      dxy     :     0.018975
      f0      :     0.000963  f :     0.006531
      f+1     :     0.000812
      f-1     :     0.000815
      f+2     :     0.001194
      f-2     :     0.000507
      f+3     :     0.001247
      f-3     :     0.000993
  8 H s       :     0.820682  s :     0.820682
      pz      :     0.012209  p :     0.060085
      px      :     0.033423
      py      :     0.014453
  9 H s       :     0.821360  s :     0.821360
      pz      :     0.026179  p :     0.059773
      px      :     0.019157
      py      :     0.014437
 10 H s       :     0.820975  s :     0.820975
      pz      :     0.030345  p :     0.060240
      px      :     0.016142
      py      :     0.013753
 11 H s       :     0.814341  s :     0.814341
      pz      :     0.008721  p :     0.054339
      px      :     0.031979
      py      :     0.013639
 12 H s       :     0.792937  s :     0.792937
      pz      :     0.028301  p :     0.059085
      px      :     0.019474
      py      :     0.011310
 13 H s       :     0.791219  s :     0.791219
      pz      :     0.012227  p :     0.058577
      px      :     0.030448
      py      :     0.015902
 14 H s       :     0.732389  s :     0.732389
      pz      :     0.030218  p :     0.104692
      px      :     0.024833
      py      :     0.049641
 15 H s       :     0.839212  s :     0.839212
      pz      :     0.009148  p :     0.056020
      px      :     0.036526
      py      :     0.010346
 16 H s       :     0.824989  s :     0.824989
      pz      :     0.026638  p :     0.056386
      px      :     0.020813
      py      :     0.008935


                      *****************************
                      * MAYER POPULATION ANALYSIS *
                      *****************************

  NA   - Mulliken gross atomic population
  ZA   - Total nuclear charge
  QA   - Mulliken gross atomic charge
  VA   - Mayer's total valence
  BVA  - Mayer's bonded valence
  FA   - Mayer's free valence

  ATOM       NA         ZA         QA         VA         BVA        FA
  0 C      6.3054     6.0000    -0.3054     3.9021     3.9021     0.0000
  1 C      5.8508     6.0000     0.1492     3.8751     3.8751     0.0000
  2 C      6.0771     6.0000    -0.0771     3.7456     3.7456    -0.0000
  3 C      5.7862     6.0000     0.2138     4.2518     4.2518    -0.0000
  4 N      7.4631     7.0000    -0.4631     2.9899     2.9899    -0.0000
  5 O      8.3757     8.0000    -0.3757     1.8993     1.8993    -0.0000
  6 C      5.8114     6.0000     0.1886     3.9816     3.9816    -0.0000
  7 O      8.3926     8.0000    -0.3926     1.8689     1.8689     0.0000
  8 H      0.8887     1.0000     0.1113     0.9832     0.9832     0.0000
  9 H      0.8944     1.0000     0.1056     0.9740     0.9740     0.0000
 10 H      0.8798     1.0000     0.1202     0.9768     0.9768     0.0000
 11 H      0.9326     1.0000     0.0674     0.9751     0.9751     0.0000
 12 H      0.8799     1.0000     0.1201     0.9964     0.9964    -0.0000
 13 H      0.8919     1.0000     0.1081     0.9880     0.9880     0.0000
 14 H      0.7759     1.0000     0.2241     0.9525     0.9525     0.0000
 15 H      0.9163     1.0000     0.0837     0.9730     0.9730     0.0000
 16 H      0.8782     1.0000     0.1218     0.9600     0.9600    -0.0000

  Mayer bond orders larger than 0.1
B(  0-C ,  1-C ) :   0.9729 B(  0-C ,  8-H ) :   0.9855 B(  0-C ,  9-H ) :   0.9822 
B(  0-C , 10-H ) :   0.9880 B(  1-C ,  2-C ) :   0.9882 B(  1-C ,  7-O ) :   0.8982 
B(  1-C , 11-H ) :   0.9856 B(  2-C ,  3-C ) :   0.9690 B(  2-C , 12-H ) :   0.9634 
B(  2-C , 13-H ) :   0.9615 B(  3-C ,  4-N ) :   2.1371 B(  3-C ,  5-O ) :   1.0647 
B(  4-N , 14-H ) :   0.9137 B(  5-O ,  6-C ) :   0.9157 B(  6-C ,  7-O ) :   1.0217 
B(  6-C , 15-H ) :   0.9919 B(  6-C , 16-H ) :   0.9809 

-------
TIMINGS
-------

Total SCF time: 0 days 0 hours 1 min 51 sec 

Total time                  ....     111.046 sec
Sum of individual times     ....     114.646 sec  (103.2%)

Fock matrix formation       ....     109.887 sec  ( 99.0%)
Diagonalization             ....       0.571 sec  (  0.5%)
Density matrix formation    ....       0.034 sec  (  0.0%)
Population analysis         ....       0.117 sec  (  0.1%)
Initial guess               ....       2.476 sec  (  2.2%)
Orbital Transformation      ....       0.000 sec  (  0.0%)
Orbital Orthonormalization  ....       0.000 sec  (  0.0%)
DIIS solution               ....       0.166 sec  (  0.1%)
SOSCF solution              ....       0.162 sec  (  0.1%)

   <<< Auxbasis replaced with dsgdb9nsd_007779.AUXC.tmp (Dim=743) >>> 


------------------------------------------------------------------------------
                              ORCA MP2 CALCULATION
------------------------------------------------------------------------------

Freezing NCore=16 chemical core electrons

   <<< Use J-auxbasis for calculation of Separable RI-J derivative contributions dsgdb9nsd_007779.AUXJ.tmp (Dim=768) >>> 


---------------------
RI-MP2 ENERGY+DENSITY
---------------------
Dimension of the basis                    ...  302
Memory devoted to MP2                     ... 2000 MB   
Data format for buffers                   ... DOUBLE
Compression type for matrix containers    ... UNCOMPRESSED
Overall scaling of the MP2 energy         ...   1.000e+00 Eh
Calculating two index integrals           ... done (    0.016 sec)
Cholesky decomposition of V**-1           ... done (    0.089 sec)

-----------------
RI-TRANSFORMATION (AUX index driven)
-----------------

Dimension of the orbital-basis         ... 302
Dimension of the aux-basis             ... 743
Transformation of internal MOs         ...    0-  30
Transformation of internal/external MOs...    0-  30 to   31- 301
Number Format for Storage              ... Double (8 Byte)
Integral mode                          ... Direct

First Phase: integral generation and transformation of MO indices
  Aux angular momentum 0               ... done (    0.618 sec)
  Aux angular momentum 1               ... done (    0.850 sec)
  Aux angular momentum 2               ... done (    0.917 sec)
  Aux angular momentum 3               ... done (    0.688 sec)
  Aux angular momentum 4               ... done (    0.309 sec)
Closing buffer VIJ ( 0.00 GB; CompressionRatio= 1.93)
Closing buffer VIA ( 0.05 GB; CompressionRatio= 1.00)
  Phase 1 completed in     3.482 sec
Second Phase: sorting and transformation of aux index

IJ-Transformation
Memory available                       ... 1989 MB 
Max. # MO pairs treated in a batch     ... 31    
# of internal orbitals                 ... 31
# batches for internal orbitals        ... 1
Closing buffer IJV ( 0.00 GB; CompressionRatio= 1.00)
(ij|v) transformation done in     0.142 sec

IA-Transformation
Memory available                       ... 1989 MB 
Max. # MO pairs treated in a batch     ... 31    
# of internal orbitals                 ... 31
# batches for internal orbitals        ... 1
Closing buffer IAV ( 0.05 GB; CompressionRatio= 1.00)
(ia|v) transformation done in     0.996 sec

  Phase 2 completed in     1.153 sec
RI-Integral transformation completed in     4.635 sec
Opening buffers                              ... done
Frozen core precalculation                   ... done

Starting loop over batches of integrals:

Operator 0  - window                       ... (  8- 30)x( 31-301)
Operator 0  - Memory available             ...  2000 MB
Operator 0  - Memory needed per MO         ...   3.1 MB
Operator 0  - Number of orbitals per batch ... 23
Operator 0  - Number of batches            ... 1

OPERATOR  0   PASS   0:  MOs     8 ...   30
  Reading integrals       ... ok
  Internal MO  10
  Internal MO  13
  Internal MO  16
  Internal MO  19
  Internal MO  22
  Internal MO  25
  Internal MO  28
Time spent in pair loops =    24.551 sec
Deleting buffer (Ka|jb)[aa] ...done

-----------------------------------------------
 RI-MP2 CORRELATION ENERGY:     -1.473127437 Eh
-----------------------------------------------


---------------------
MP2 DENSITY FORMATION
---------------------

Completing the external part of the density      ... done
Storing the unrelaxed density                    ... done

Calculating G(D)                                 ... done
Completing the Lagrangian                        ... done
Solving the Z-vector equations                   ... 

------------------------------------------------------------------------------
                           ORCA CP-SCF CALCULATION
------------------------------------------------------------------------------

Input orbitals are from        ... dsgdb9nsd_007779.gbw
Input Perturbation             ... dsgdb9nsd_007779.pin.tmp
Wavefunction output            ... dsgdb9nsd_007779.pout.tmp
Perturbation mode              ... Real perturbation
Solver                         ... POPLE
Max. number of iterations      ... 128
Convergence tolerance          ... 1.000e-08
Integral handling              ... Direct
Number of perturbations        ... 1
Number of operators            ... 1
Orbital ranges used for CP-SCF:
 Operator 0:  Orbitals   0... 30  to  31...301
Variables per vector in CP-SCF ... 8401
Number of vectors sought       ... 1
     CP-SCF ITERATION   0: 
     CP-SCF ITERATION   1:      0.001074386
     CP-SCF ITERATION   2:      0.000171487
     CP-SCF ITERATION   3:      0.000012111
     CP-SCF ITERATION   4:      0.000001422
     CP-SCF ITERATION   5:      0.000000197
     CP-SCF ITERATION   6:      0.000000022
     CP-SCF ITERATION   7:      0.000000003
done
Finalizing the relaxed density                   ... done
Transforming P to the AO basis                   ... done
Storing the relaxed density                      ... done

                *********************************************
                * UNRELAXED MP2 DENSITY POPULATION ANALYSIS *
                *********************************************

------------------------------------------------------------------------------
                           ORCA POPULATION ANALYSIS
------------------------------------------------------------------------------
Input electron density              ... dsgdb9nsd_007779.pmp2ur
BaseName (.gbw .S,...)              ... dsgdb9nsd_007779

                    ********************************
                    * MULLIKEN POPULATION ANALYSIS *
                    ********************************

-----------------------
MULLIKEN ATOMIC CHARGES
-----------------------
   0 C :   -0.313466
   1 C :    0.133332
   2 C :   -0.086458
   3 C :    0.191546
   4 N :   -0.449088
   5 O :   -0.356757
   6 C :    0.165270
   7 O :   -0.373800
   8 H :    0.114351
   9 H :    0.108759
  10 H :    0.123394
  11 H :    0.071453
  12 H :    0.123429
  13 H :    0.111998
  14 H :    0.224506
  15 H :    0.086508
  16 H :    0.125023
Sum of atomic charges:   -0.0000000

--------------------------------
MULLIKEN REDUCED ORBITAL CHARGES
--------------------------------
  0 C s       :     3.212997  s :     3.212997
      pz      :     1.047858  p :     2.997323
      px      :     1.053113
      py      :     0.896352
      dz2     :     0.018142  d :     0.094864
      dxz     :     0.017381
      dyz     :     0.018486
      dx2y2   :     0.018719
      dxy     :     0.022135
      f0      :     0.000889  f :     0.008283
      f+1     :     0.001549
      f-1     :     0.001205
      f+2     :     0.001016
      f-2     :     0.000643
      f+3     :     0.001325
      f-3     :     0.001656
  1 C s       :     3.110485  s :     3.110485
      pz      :     0.743685  p :     2.531317
      px      :     0.856998
      py      :     0.930635
      dz2     :     0.053680  d :     0.207357
      dxz     :     0.033188
      dyz     :     0.041618
      dx2y2   :     0.041903
      dxy     :     0.036968
      f0      :     0.003225  f :     0.017509
      f+1     :     0.002736
      f-1     :     0.002387
      f+2     :     0.002991
      f-2     :     0.002170
      f+3     :     0.001926
      f-3     :     0.002074
  2 C s       :     3.066549  s :     3.066549
      pz      :     0.976989  p :     2.893688
      px      :     1.022353
      py      :     0.894346
      dz2     :     0.024328  d :     0.115956
      dxz     :     0.022591
      dyz     :     0.020168
      dx2y2   :     0.025734
      dxy     :     0.023135
      f0      :     0.001455  f :     0.010265
      f+1     :     0.001924
      f-1     :     0.001451
      f+2     :     0.001587
      f-2     :     0.000953
      f+3     :     0.001247
      f-3     :     0.001648
  3 C s       :     3.111185  s :     3.111185
      pz      :     0.736756  p :     2.419929
      px      :     0.780216
      py      :     0.902957
      dz2     :     0.076350  d :     0.253021
      dxz     :     0.058701
      dyz     :     0.055818
      dx2y2   :     0.028400
      dxy     :     0.033752
      f0      :     0.005409  f :     0.024319
      f+1     :     0.003222
      f-1     :     0.004777
      f+2     :     0.003732
      f-2     :     0.003480
      f+3     :     0.001960
      f-3     :     0.001739
  4 N s       :     3.592156  s :     3.592156
      pz      :     1.449212  p :     3.768515
      px      :     1.235016
      py      :     1.084286
      dz2     :     0.019378  d :     0.082041
      dxz     :     0.020076
      dyz     :     0.020675
      dx2y2   :     0.011756
      dxy     :     0.010156
      f0      :     0.000970  f :     0.006376
      f+1     :     0.000744
      f-1     :     0.001150
      f+2     :     0.000938
      f-2     :     0.001000
      f+3     :     0.000837
      f-3     :     0.000736
  5 O s       :     3.754544  s :     3.754544
      pz      :     1.186458  p :     4.527943
      px      :     1.669486
      py      :     1.671999
      dz2     :     0.013715  d :     0.069294
      dxz     :     0.016876
      dyz     :     0.019204
      dx2y2   :     0.009142
      dxy     :     0.010357
      f0      :     0.000932  f :     0.004977
      f+1     :     0.000846
      f-1     :     0.000934
      f+2     :     0.000594
      f-2     :     0.000748
      f+3     :     0.000465
      f-3     :     0.000457
  6 C s       :     3.149350  s :     3.149350
      pz      :     0.818545  p :     2.461649
      px      :     0.980266
      py      :     0.662838
      dz2     :     0.033634  d :     0.203459
      dxz     :     0.033199
      dyz     :     0.051603
      dx2y2   :     0.039321
      dxy     :     0.045701
      f0      :     0.002928  f :     0.020272
      f+1     :     0.002581
      f-1     :     0.002870
      f+2     :     0.003985
      f-2     :     0.001734
      f+3     :     0.003598
      f-3     :     0.002576
  7 O s       :     3.772978  s :     3.772978
      pz      :     1.543380  p :     4.525507
      px      :     1.690440
      py      :     1.291687
      dz2     :     0.014979  d :     0.070368
      dxz     :     0.013927
      dyz     :     0.011905
      dx2y2   :     0.018077
      dxy     :     0.011480
      f0      :     0.000617  f :     0.004948
      f+1     :     0.000749
      f-1     :     0.000707
      f+2     :     0.000699
      f-2     :     0.000619
      f+3     :     0.000691
      f-3     :     0.000866
  8 H s       :     0.860753  s :     0.860753
      pz      :     0.004745  p :     0.024895
      px      :     0.013845
      py      :     0.006305
  9 H s       :     0.866436  s :     0.866436
      pz      :     0.010710  p :     0.024805
      px      :     0.007699
      py      :     0.006396
 10 H s       :     0.851618  s :     0.851618
      pz      :     0.012627  p :     0.024988
      px      :     0.006417
      py      :     0.005944
 11 H s       :     0.903874  s :     0.903874
      pz      :     0.003844  p :     0.024673
      px      :     0.014981
      py      :     0.005848
 12 H s       :     0.850904  s :     0.850904
      pz      :     0.012965  p :     0.025667
      px      :     0.007928
      py      :     0.004774
 13 H s       :     0.862353  s :     0.862353
      pz      :     0.005013  p :     0.025649
      px      :     0.013416
      py      :     0.007220
 14 H s       :     0.738255  s :     0.738255
      pz      :     0.009168  p :     0.037239
      px      :     0.009218
      py      :     0.018853
 15 H s       :     0.889818  s :     0.889818
      pz      :     0.003788  p :     0.023673
      px      :     0.015019
      py      :     0.004866
 16 H s       :     0.850532  s :     0.850532
      pz      :     0.012055  p :     0.024445
      px      :     0.008209
      py      :     0.004182


                     *******************************
                     * LOEWDIN POPULATION ANALYSIS *
                     *******************************

----------------------
LOEWDIN ATOMIC CHARGES
----------------------
   0 C :   -0.259285
   1 C :   -0.310704
   2 C :   -0.181802
   3 C :   -0.365704
   4 N :   -0.079952
   5 O :    0.181196
   6 C :   -0.326471
   7 O :    0.157180
   8 H :    0.121082
   9 H :    0.120710
  10 H :    0.120655
  11 H :    0.132591
  12 H :    0.149573
  13 H :    0.151794
  14 H :    0.163090
  15 H :    0.105845
  16 H :    0.120200

-------------------------------
LOEWDIN REDUCED ORBITAL CHARGES
-------------------------------
  0 C s       :     2.825138  s :     2.825138
      pz      :     1.047981  p :     3.110151
      px      :     1.052217
      py      :     1.009953
      dz2     :     0.050194  d :     0.293842
      dxz     :     0.042407
      dyz     :     0.064799
      dx2y2   :     0.063967
      dxy     :     0.072475
      f0      :     0.002736  f :     0.030154
      f+1     :     0.004013
      f-1     :     0.004665
      f+2     :     0.003962
      f-2     :     0.002941
      f+3     :     0.006096
      f-3     :     0.005743
  1 C s       :     2.746502  s :     2.746502
      pz      :     0.864646  p :     2.791581
      px      :     0.926408
      py      :     1.000528
      dz2     :     0.176456  d :     0.679678
      dxz     :     0.127944
      dyz     :     0.128528
      dx2y2   :     0.140348
      dxy     :     0.106402
      f0      :     0.016814  f :     0.092943
      f+1     :     0.015964
      f-1     :     0.012616
      f+2     :     0.017265
      f-2     :     0.013171
      f+3     :     0.009101
      f-3     :     0.008012
  2 C s       :     2.767944  s :     2.767944
      pz      :     0.995345  p :     2.979005
      px      :     1.010558
      py      :     0.973102
      dz2     :     0.083569  d :     0.392333
      dxz     :     0.078302
      dyz     :     0.071652
      dx2y2   :     0.084201
      dxy     :     0.074608
      f0      :     0.006073  f :     0.042520
      f+1     :     0.006244
      f-1     :     0.007010
      f+2     :     0.007371
      f-2     :     0.003909
      f+3     :     0.005006
      f-3     :     0.006906
  3 C s       :     2.744579  s :     2.744579
      pz      :     0.902838  p :     2.654960
      px      :     0.756861
      py      :     0.995261
      dz2     :     0.248086  d :     0.838437
      dxz     :     0.166313
      dyz     :     0.220648
      dx2y2   :     0.101202
      dxy     :     0.102188
      f0      :     0.030211  f :     0.127727
      f+1     :     0.015910
      f-1     :     0.028053
      f+2     :     0.020991
      f-2     :     0.019027
      f+3     :     0.006888
      f-3     :     0.006647
  4 N s       :     3.154886  s :     3.154886
      pz      :     1.467941  p :     3.747273
      px      :     1.155830
      py      :     1.123503
      dz2     :     0.044039  d :     0.161176
      dxz     :     0.022954
      dyz     :     0.047104
      dx2y2   :     0.029962
      dxy     :     0.017117
      f0      :     0.003493  f :     0.016617
      f+1     :     0.001390
      f-1     :     0.004169
      f+2     :     0.002911
      f-2     :     0.002215
      f+3     :     0.001183
      f-3     :     0.001256
  5 O s       :     3.260783  s :     3.260783
      pz      :     1.247999  p :     4.418233
      px      :     1.587249
      py      :     1.582986
      dz2     :     0.036980  d :     0.130583
      dxz     :     0.032902
      dyz     :     0.036077
      dx2y2   :     0.012309
      dxy     :     0.012315
      f0      :     0.001989  f :     0.009205
      f+1     :     0.001533
      f-1     :     0.001711
      f+2     :     0.001244
      f-2     :     0.001679
      f+3     :     0.000527
      f-3     :     0.000522
  6 C s       :     2.805705  s :     2.805705
      pz      :     0.871954  p :     2.707288
      px      :     1.021192
      py      :     0.814142
      dz2     :     0.116090  d :     0.697777
      dxz     :     0.110026
      dyz     :     0.168592
      dx2y2   :     0.157679
      dxy     :     0.145390
      f0      :     0.015574  f :     0.115701
      f+1     :     0.011758
      f-1     :     0.019646
      f+2     :     0.020680
      f-2     :     0.012288
      f+3     :     0.020791
      f-3     :     0.014963
  7 O s       :     3.266575  s :     3.266575
      pz      :     1.485996  p :     4.430902
      px      :     1.602814
      py      :     1.342091
      dz2     :     0.027868  d :     0.135589
      dxz     :     0.021722
      dyz     :     0.026270
      dx2y2   :     0.034984
      dxy     :     0.024744
      f0      :     0.001399  f :     0.009754
      f+1     :     0.001270
      f-1     :     0.001309
      f+2     :     0.001646
      f-2     :     0.000948
      f+3     :     0.001687
      f-3     :     0.001494
  8 H s       :     0.813652  s :     0.813652
      pz      :     0.013484  p :     0.065266
      px      :     0.035803
      py      :     0.015978
  9 H s       :     0.814317  s :     0.814317
      pz      :     0.028222  p :     0.064972
      px      :     0.020806
      py      :     0.015944
 10 H s       :     0.813982  s :     0.813982
      pz      :     0.032526  p :     0.065363
      px      :     0.017617
      py      :     0.015219
 11 H s       :     0.807225  s :     0.807225
      pz      :     0.010207  p :     0.060184
      px      :     0.034701
      py      :     0.015276
 12 H s       :     0.786141  s :     0.786141
      pz      :     0.030442  p :     0.064285
      px      :     0.021141
      py      :     0.012702
 13 H s       :     0.784322  s :     0.784322
      pz      :     0.013576  p :     0.063883
      px      :     0.032752
      py      :     0.017556
 14 H s       :     0.728026  s :     0.728026
      pz      :     0.031370  p :     0.108884
      px      :     0.025739
      py      :     0.051774
 15 H s       :     0.832557  s :     0.832557
      pz      :     0.010602  p :     0.061597
      px      :     0.039009
      py      :     0.011986
 16 H s       :     0.818330  s :     0.818330
      pz      :     0.028699  p :     0.061470
      px      :     0.022361
      py      :     0.010409


                      *****************************
                      * MAYER POPULATION ANALYSIS *
                      *****************************

  NA   - Mulliken gross atomic population
  ZA   - Total nuclear charge
  QA   - Mulliken gross atomic charge
  VA   - Mayer's total valence
  BVA  - Mayer's bonded valence
  FA   - Mayer's free valence

  ATOM       NA         ZA         QA         VA         BVA        FA
  0 C      6.3135     6.0000    -0.3135     4.0198     3.7248     0.2950
  1 C      5.8667     6.0000     0.1333     3.9701     3.6475     0.3226
  2 C      6.0865     6.0000    -0.0865     3.8578     3.5458     0.3120
  3 C      5.8085     6.0000     0.1915     4.3258     3.9619     0.3638
  4 N      7.4491     7.0000    -0.4491     3.2132     2.7811     0.4321
  5 O      8.3568     8.0000    -0.3568     2.1924     1.7645     0.4280
  6 C      5.8347     6.0000     0.1653     4.0730     3.7759     0.2971
  7 O      8.3738     8.0000    -0.3738     2.1602     1.7373     0.4229
  8 H      0.8856     1.0000     0.1144     0.9919     0.9425     0.0494
  9 H      0.8912     1.0000     0.1088     0.9831     0.9330     0.0501
 10 H      0.8766     1.0000     0.1234     0.9851     0.9365     0.0486
 11 H      0.9285     1.0000     0.0715     0.9848     0.9323     0.0525
 12 H      0.8766     1.0000     0.1234     1.0045     0.9540     0.0505
 13 H      0.8880     1.0000     0.1120     0.9960     0.9450     0.0510
 14 H      0.7755     1.0000     0.2245     0.9596     0.9056     0.0540
 15 H      0.9135     1.0000     0.0865     0.9824     0.9310     0.0513
 16 H      0.8750     1.0000     0.1250     0.9679     0.9215     0.0464

  Mayer bond orders larger than 0.1
B(  0-C ,  1-C ) :   0.9155 B(  0-C ,  8-H ) :   0.9460 B(  0-C ,  9-H ) :   0.9426 
B(  0-C , 10-H ) :   0.9492 B(  1-C ,  2-C ) :   0.9273 B(  1-C ,  7-O ) :   0.8373 
B(  1-C , 11-H ) :   0.9446 B(  2-C ,  3-C ) :   0.9113 B(  2-C , 12-H ) :   0.9239 
B(  2-C , 13-H ) :   0.9217 B(  3-C ,  4-N ) :   1.9790 B(  3-C ,  5-O ) :   0.9984 
B(  4-N , 14-H ) :   0.8704 B(  5-O ,  6-C ) :   0.8558 B(  6-C ,  7-O ) :   0.9579 
B(  6-C , 15-H ) :   0.9526 B(  6-C , 16-H ) :   0.9440 


                *******************************************
                * RELAXED MP2 DENSITY POPULATION ANALYSIS *
                *******************************************

------------------------------------------------------------------------------
                           ORCA POPULATION ANALYSIS
------------------------------------------------------------------------------
Input electron density              ... dsgdb9nsd_007779.pmp2re
BaseName (.gbw .S,...)              ... dsgdb9nsd_007779

                    ********************************
                    * MULLIKEN POPULATION ANALYSIS *
                    ********************************

-----------------------
MULLIKEN ATOMIC CHARGES
-----------------------
   0 C :   -0.367628
   1 C :    0.044157
   2 C :   -0.131381
   3 C :    0.087982
   4 N :   -0.360631
   5 O :   -0.268591
   6 C :    0.065770
   7 O :   -0.289220
   8 H :    0.134962
   9 H :    0.130754
  10 H :    0.142911
  11 H :    0.087594
  12 H :    0.135032
  13 H :    0.129945
  14 H :    0.220495
  15 H :    0.096947
  16 H :    0.140901
Sum of atomic charges:   -0.0000000

--------------------------------
MULLIKEN REDUCED ORBITAL CHARGES
--------------------------------
  0 C s       :     3.228656  s :     3.228656
      pz      :     1.069547  p :     3.048507
      px      :     1.074435
      py      :     0.904525
      dz2     :     0.014746  d :     0.082588
      dxz     :     0.014188
      dyz     :     0.017885
      dx2y2   :     0.014385
      dxy     :     0.021384
      f0      :     0.000889  f :     0.007876
      f+1     :     0.001455
      f-1     :     0.001088
      f+2     :     0.001020
      f-2     :     0.000628
      f+3     :     0.001331
      f-3     :     0.001465
  1 C s       :     3.158833  s :     3.158833
      pz      :     0.760504  p :     2.580358
      px      :     0.884983
      py      :     0.934871
      dz2     :     0.051579  d :     0.199989
      dxz     :     0.031226
      dyz     :     0.041163
      dx2y2   :     0.038830
      dxy     :     0.037192
      f0      :     0.003190  f :     0.016664
      f+1     :     0.002559
      f-1     :     0.002148
      f+2     :     0.002978
      f-2     :     0.002002
      f+3     :     0.001941
      f-3     :     0.001845
  2 C s       :     3.085943  s :     3.085943
      pz      :     0.978220  p :     2.930558
      px      :     1.030896
      py      :     0.921442
      dz2     :     0.020804  d :     0.105140
      dxz     :     0.019268
      dyz     :     0.019806
      dx2y2   :     0.022586
      dxy     :     0.022676
      f0      :     0.001463  f :     0.009740
      f+1     :     0.001757
      f-1     :     0.001285
      f+2     :     0.001572
      f-2     :     0.000909
      f+3     :     0.001255
      f-3     :     0.001499
  3 C s       :     3.119438  s :     3.119438
      pz      :     0.768004  p :     2.523867
      px      :     0.847990
      py      :     0.907873
      dz2     :     0.074737  d :     0.245775
      dxz     :     0.054379
      dyz     :     0.057583
      dx2y2   :     0.027581
      dxy     :     0.031496
      f0      :     0.005136  f :     0.022937
      f+1     :     0.003036
      f-1     :     0.004572
      f+2     :     0.003526
      f-2     :     0.003185
      f+3     :     0.001857
      f-3     :     0.001626
  4 N s       :     3.566624  s :     3.566624
      pz      :     1.438491  p :     3.712639
      px      :     1.205630
      py      :     1.068518
      dz2     :     0.019249  d :     0.075302
      dxz     :     0.018353
      dyz     :     0.017751
      dx2y2   :     0.011168
      dxy     :     0.008781
      f0      :     0.000971  f :     0.006066
      f+1     :     0.000718
      f-1     :     0.001027
      f+2     :     0.000885
      f-2     :     0.000958
      f+3     :     0.000796
      f-3     :     0.000711
  5 O s       :     3.742773  s :     3.742773
      pz      :     1.180524  p :     4.453326
      px      :     1.634081
      py      :     1.638721
      dz2     :     0.013847  d :     0.067572
      dxz     :     0.016303
      dyz     :     0.017783
      dx2y2   :     0.009450
      dxy     :     0.010189
      f0      :     0.000942  f :     0.004920
      f+1     :     0.000829
      f-1     :     0.000898
      f+2     :     0.000607
      f-2     :     0.000721
      f+3     :     0.000465
      f-3     :     0.000458
  6 C s       :     3.172134  s :     3.172134
      pz      :     0.844525  p :     2.542208
      px      :     1.012131
      py      :     0.685552
      dz2     :     0.031708  d :     0.200556
      dxz     :     0.032430
      dyz     :     0.051995
      dx2y2   :     0.036738
      dxy     :     0.047685
      f0      :     0.002822  f :     0.019333
      f+1     :     0.002431
      f-1     :     0.002736
      f+2     :     0.003791
      f-2     :     0.001690
      f+3     :     0.003424
      f-3     :     0.002439
  7 O s       :     3.767673  s :     3.767673
      pz      :     1.511937  p :     4.447850
      px      :     1.655363
      py      :     1.280550
      dz2     :     0.014362  d :     0.068790
      dxz     :     0.013234
      dyz     :     0.012467
      dx2y2   :     0.016705
      dxy     :     0.012023
      f0      :     0.000629  f :     0.004906
      f+1     :     0.000731
      f-1     :     0.000684
      f+2     :     0.000717
      f-2     :     0.000615
      f+3     :     0.000707
      f-3     :     0.000824
  8 H s       :     0.841187  s :     0.841187
      pz      :     0.004989  p :     0.023851
      px      :     0.012582
      py      :     0.006281
  9 H s       :     0.845392  s :     0.845392
      pz      :     0.009992  p :     0.023854
      px      :     0.007487
      py      :     0.006375
 10 H s       :     0.833131  s :     0.833131
      pz      :     0.011569  p :     0.023958
      px      :     0.006386
      py      :     0.006003
 11 H s       :     0.888888  s :     0.888888
      pz      :     0.004114  p :     0.023518
      px      :     0.013562
      py      :     0.005842
 12 H s       :     0.840423  s :     0.840423
      pz      :     0.011913  p :     0.024545
      px      :     0.007611
      py      :     0.005021
 13 H s       :     0.845533  s :     0.845533
      pz      :     0.005190  p :     0.024521
      px      :     0.012276
      py      :     0.007055
 14 H s       :     0.743017  s :     0.743017
      pz      :     0.009663  p :     0.036489
      px      :     0.009132
      py      :     0.017695
 15 H s       :     0.880543  s :     0.880543
      pz      :     0.004010  p :     0.022510
      px      :     0.013563
      py      :     0.004936
 16 H s       :     0.836058  s :     0.836058
      pz      :     0.011027  p :     0.023041
      px      :     0.007777
      py      :     0.004237


                     *******************************
                     * LOEWDIN POPULATION ANALYSIS *
                     *******************************

----------------------
LOEWDIN ATOMIC CHARGES
----------------------
   0 C :   -0.285477
   1 C :   -0.336745
   2 C :   -0.206646
   3 C :   -0.410824
   4 N :   -0.049372
   5 O :    0.217304
   6 C :   -0.371127
   7 O :    0.193030
   8 H :    0.129537
   9 H :    0.130606
  10 H :    0.129097
  11 H :    0.139588
  12 H :    0.156779
  13 H :    0.159868
  14 H :    0.167104
  15 H :    0.110629
  16 H :    0.126648

-------------------------------
LOEWDIN REDUCED ORBITAL CHARGES
-------------------------------
  0 C s       :     2.830891  s :     2.830891
      pz      :     1.062090  p :     3.144912
      px      :     1.066502
      py      :     1.016320
      dz2     :     0.046198  d :     0.279884
      dxz     :     0.038527
      dyz     :     0.064383
      dx2y2   :     0.059268
      dxy     :     0.071508
      f0      :     0.002756  f :     0.029790
      f+1     :     0.003872
      f-1     :     0.004544
      f+2     :     0.003997
      f-2     :     0.002874
      f+3     :     0.006154
      f-3     :     0.005594
  1 C s       :     2.754112  s :     2.754112
      pz      :     0.873760  p :     2.813924
      px      :     0.937696
      py      :     1.002468
      dz2     :     0.176441  d :     0.677252
      dxz     :     0.127003
      dyz     :     0.129251
      dx2y2   :     0.138154
      dxy     :     0.106404
      f0      :     0.016360  f :     0.091457
      f+1     :     0.015769
      f-1     :     0.012408
      f+2     :     0.017116
      f-2     :     0.013044
      f+3     :     0.009045
      f-3     :     0.007714
  2 C s       :     2.775280  s :     2.775280
      pz      :     1.001077  p :     3.004901
      px      :     1.019383
      py      :     0.984441
      dz2     :     0.080627  d :     0.384038
      dxz     :     0.074620
      dyz     :     0.072568
      dx2y2   :     0.080565
      dxy     :     0.075658
      f0      :     0.006161  f :     0.042426
      f+1     :     0.006110
      f-1     :     0.006860
      f+2     :     0.007380
      f-2     :     0.003900
      f+3     :     0.005236
      f-3     :     0.006780
  3 C s       :     2.749125  s :     2.749125
      pz      :     0.906195  p :     2.703565
      px      :     0.805702
      py      :     0.991669
      dz2     :     0.249694  d :     0.834389
      dxz     :     0.162215
      dyz     :     0.223652
      dx2y2   :     0.099829
      dxy     :     0.098998
      f0      :     0.028721  f :     0.123744
      f+1     :     0.014843
      f-1     :     0.027728
      f+2     :     0.020473
      f-2     :     0.018719
      f+3     :     0.006713
      f-3     :     0.006547
  4 N s       :     3.158080  s :     3.158080
      pz      :     1.454723  p :     3.716647
      px      :     1.136089
      py      :     1.125834
      dz2     :     0.043953  d :     0.157867
      dxz     :     0.023082
      dyz     :     0.045045
      dx2y2   :     0.029189
      dxy     :     0.016599
      f0      :     0.003488  f :     0.016778
      f+1     :     0.001464
      f-1     :     0.004135
      f+2     :     0.002861
      f-2     :     0.002350
      f+3     :     0.001208
      f-3     :     0.001272
  5 O s       :     3.267616  s :     3.267616
      pz      :     1.252017  p :     4.372383
      px      :     1.559661
      py      :     1.560706
      dz2     :     0.038166  d :     0.133227
      dxz     :     0.033889
      dyz     :     0.036056
      dx2y2   :     0.012624
      dxy     :     0.012492
      f0      :     0.002056  f :     0.009469
      f+1     :     0.001585
      f-1     :     0.001746
      f+2     :     0.001299
      f-2     :     0.001727
      f+3     :     0.000529
      f-3     :     0.000528
  6 C s       :     2.816110  s :     2.816110
      pz      :     0.887354  p :     2.747138
      px      :     1.036295
      py      :     0.823489
      dz2     :     0.114445  d :     0.695647
      dxz     :     0.108909
      dyz     :     0.168395
      dx2y2   :     0.156182
      dxy     :     0.147716
      f0      :     0.014982  f :     0.112232
      f+1     :     0.011399
      f-1     :     0.019704
      f+2     :     0.019492
      f-2     :     0.012220
      f+3     :     0.019697
      f-3     :     0.014738
  7 O s       :     3.272007  s :     3.272007
      pz      :     1.465509  p :     4.387590
      px      :     1.582083
      py      :     1.339998
      dz2     :     0.028039  d :     0.137412
      dxz     :     0.021781
      dyz     :     0.027310
      dx2y2   :     0.034589
      dxy     :     0.025692
      f0      :     0.001427  f :     0.009960
      f+1     :     0.001305
      f-1     :     0.001339
      f+2     :     0.001679
      f-2     :     0.000968
      f+3     :     0.001721
      f-3     :     0.001522
  8 H s       :     0.804277  s :     0.804277
      pz      :     0.014082  p :     0.066187
      px      :     0.035636
      py      :     0.016469
  9 H s       :     0.803383  s :     0.803383
      pz      :     0.028374  p :     0.066011
      px      :     0.021178
      py      :     0.016459
 10 H s       :     0.804596  s :     0.804596
      pz      :     0.032443  p :     0.066307
      px      :     0.018075
      py      :     0.015789
 11 H s       :     0.798891  s :     0.798891
      pz      :     0.010863  p :     0.061520
      px      :     0.034890
      py      :     0.015767
 12 H s       :     0.777887  s :     0.777887
      pz      :     0.030389  p :     0.065334
      px      :     0.021399
      py      :     0.013546
 13 H s       :     0.775261  s :     0.775261
      pz      :     0.014098  p :     0.064872
      px      :     0.032715
      py      :     0.018059
 14 H s       :     0.723966  s :     0.723966
      pz      :     0.032277  p :     0.108930
      px      :     0.025207
      py      :     0.051446
 15 H s       :     0.826557  s :     0.826557
      pz      :     0.011185  p :     0.062814
      px      :     0.039015
      py      :     0.012614
 16 H s       :     0.811474  s :     0.811474
      pz      :     0.028627  p :     0.061878
      px      :     0.022426
      py      :     0.010824


                      *****************************
                      * MAYER POPULATION ANALYSIS *
                      *****************************

  NA   - Mulliken gross atomic population
  ZA   - Total nuclear charge
  QA   - Mulliken gross atomic charge
  VA   - Mayer's total valence
  BVA  - Mayer's bonded valence
  FA   - Mayer's free valence

  ATOM       NA         ZA         QA         VA         BVA        FA
  0 C      6.3676     6.0000    -0.3676     3.9762     3.6837     0.2925
  1 C      5.9558     6.0000     0.0442     4.0358     3.7190     0.3169
  2 C      6.1314     6.0000    -0.1314     3.7947     3.4869     0.3078
  3 C      5.9120     6.0000     0.0880     4.4815     4.1328     0.3488
  4 N      7.3606     7.0000    -0.3606     3.2935     2.8750     0.4184
  5 O      8.2686     8.0000    -0.2686     2.3129     1.8974     0.4156
  6 C      5.9342     6.0000     0.0658     4.1499     3.8594     0.2905
  7 O      8.2892     8.0000    -0.2892     2.2839     1.8724     0.4115
  8 H      0.8650     1.0000     0.1350     0.9878     0.9395     0.0483
  9 H      0.8692     1.0000     0.1308     0.9778     0.9288     0.0490
 10 H      0.8571     1.0000     0.1429     0.9805     0.9329     0.0476
 11 H      0.9124     1.0000     0.0876     0.9771     0.9262     0.0509
 12 H      0.8650     1.0000     0.1350     1.0008     0.9517     0.0491
 13 H      0.8701     1.0000     0.1299     0.9906     0.9408     0.0498
 14 H      0.7795     1.0000     0.2205     0.9614     0.9082     0.0531
 15 H      0.9031     1.0000     0.0969     0.9746     0.9248     0.0497
 16 H      0.8591     1.0000     0.1409     0.9558     0.9100     0.0457

  Mayer bond orders larger than 0.1
B(  0-C ,  1-C ) :   0.9220 B(  0-C ,  8-H ) :   0.9352 B(  0-C ,  9-H ) :   0.9310 
B(  0-C , 10-H ) :   0.9375 B(  1-C ,  2-C ) :   0.9215 B(  1-C ,  7-O ) :   0.8946 
B(  1-C , 11-H ) :   0.9308 B(  2-C ,  3-C ) :   0.9171 B(  2-C , 12-H ) :   0.9047 
B(  2-C , 13-H ) :   0.9042 B(  3-C ,  4-N ) :   2.0559 B(  3-C ,  5-O ) :   1.0646 
B(  4-N , 14-H ) :   0.8558 B(  5-O ,  6-C ) :   0.8995 B(  6-C ,  7-O ) :   1.0173 
B(  6-C , 15-H ) :   0.9323 B(  6-C , 16-H ) :   0.9299 


-------
TIMINGS
-------

Total time                :  607.855 sec
Integral trafo            :    4.644 sec (  0.8%)
FC preparation            :    2.232 sec (  0.4%)
I/O of integrals          :    0.040 sec (  0.0%)
K(i,j) Operators          :    5.688 sec (  0.9%)
T(i,j) pair energies      :    0.564 sec (  0.1%)
V-calculation             :    0.016 sec (  0.0%)
V**(-1/2)                 :    0.089 sec (  0.0%)
Gamma(ia|P)               :    5.595 sec (  0.9%)
Gamma-Trafo               :    0.971 sec (  0.2%)
D(virtual)                :    2.121 sec (  0.3%)
D(internal)               :    1.917 sec (  0.3%)
W(virtual)                :    0.000 sec (  0.0%)
W(internal)               :    0.000 sec (  0.0%)
L(virtual)                :    7.312 sec (  1.2%)
L(internal)               :    0.138 sec (  0.0%)
G(D)                      :   71.772 sec ( 11.8%)
G(Z)                      :    0.000 sec (  0.0%)
Z-Vector Solution         :  504.237 sec ( 83.0%)
3-Index Derivative        :    0.000 sec (  0.0%)
2-Index Derivative        :    0.000 sec (  0.0%)
Separable Gradient (RIJ)  :    0.000 sec (  0.0%)
Separable Gradient (X)    :    0.000 sec (  0.0%)


---------------------------------------
MP2 TOTAL ENERGY:     -400.369234741 Eh
---------------------------------------

-------------------------   --------------------
FINAL SINGLE POINT ENERGY      -400.369234740920
-------------------------   --------------------


                            ***************************************
                            *     ORCA property calculations      *
                            ***************************************

                                    ---------------------
                                    Active property flags
                                    ---------------------
   (+) Dipole Moment


------------------------------------------------------------------------------
                       ORCA ELECTRIC PROPERTIES CALCULATION
------------------------------------------------------------------------------

Dipole Moment Calculation                       ... on
Quadrupole Moment Calculation                   ... off
Polarizability Calculation                      ... off
GBWName                                         ... dsgdb9nsd_007779.gbw
Electron density file                           ... dsgdb9nsd_007779.scfp.tmp

-------------
DIPOLE MOMENT
-------------
                                X             Y             Z
Electronic contribution:      2.45044      -5.60525       0.37714
Nuclear contribution   :     -2.94337       6.11635       0.33138
                        -----------------------------------------
Total Dipole Moment    :     -0.49293       0.51110       0.70852
                        -----------------------------------------
Magnitude (a.u.)       :      1.00310
Magnitude (Debye)      :      2.54967


                         *** MP2 UNRELAXED DENSITY ***

------------------------------------------------------------------------------
                       ORCA ELECTRIC PROPERTIES CALCULATION
------------------------------------------------------------------------------

Dipole Moment Calculation                       ... on
Quadrupole Moment Calculation                   ... off
Polarizability Calculation                      ... off
GBWName                                         ... dsgdb9nsd_007779.gbw
Electron density file                           ... dsgdb9nsd_007779.pmp2ur

-------------
DIPOLE MOMENT
-------------
                                X             Y             Z
Electronic contribution:      2.47178      -5.61900       0.37198
Nuclear contribution   :     -2.94337       6.11635       0.33138
                        -----------------------------------------
Total Dipole Moment    :     -0.47159       0.49735       0.70336
                        -----------------------------------------
Magnitude (a.u.)       :      0.98207
Magnitude (Debye)      :      2.49623


                           *** MP2 RELAXED DENSITY ***

------------------------------------------------------------------------------
                       ORCA ELECTRIC PROPERTIES CALCULATION
------------------------------------------------------------------------------

Dipole Moment Calculation                       ... on
Quadrupole Moment Calculation                   ... off
Polarizability Calculation                      ... off
GBWName                                         ... dsgdb9nsd_007779.gbw
Electron density file                           ... dsgdb9nsd_007779.pmp2re

-------------
DIPOLE MOMENT
-------------
                                X             Y             Z
Electronic contribution:      2.50675      -5.68621       0.31590
Nuclear contribution   :     -2.94337       6.11635       0.33138
                        -----------------------------------------
Total Dipole Moment    :     -0.43661       0.43014       0.64729
                        -----------------------------------------
Magnitude (a.u.)       :      0.89142
Magnitude (Debye)      :      2.26581


Timings for individual modules:

Sum of individual times         ...      722.008 sec (=  12.033 min)
GTO integral calculation        ...        0.441 sec (=   0.007 min)   0.1 %
SCF iterations                  ...      113.579 sec (=   1.893 min)  15.7 %
MP2 module                      ...      607.988 sec (=  10.133 min)  84.2 %
                             ****ORCA TERMINATED NORMALLY****
TOTAL RUN TIME: 0 days 0 hours 12 minutes 2 seconds 491 msec
