
                                 *****************
                                 * O   R   C   A *
                                 *****************

           --- An Ab Initio, DFT and Semiempirical electronic structure package ---

                  #######################################################
                  #                        -***-                        #
                  #  Department of molecular theory and spectroscopy    #
                  #              Directorship: Frank Neese              #
                  # Max Planck Institute for Chemical Energy Conversion #
                  #                  D-45470 Muelheim/Ruhr              #
                  #                       Germany                       #
                  #                                                     #
                  #                  All rights reserved                #
                  #                        -***-                        #
                  #######################################################


                         Program Version 3.0.3 - RELEASE   -


 With contributions from (in alphabetic order):
   Ute Becker             : Parallelization
   Dmytro Bykov           : SCF Hessian
   Dmitry Ganyushin       : Spin-Orbit,Spin-Spin,Magnetic field MRCI
   Andreas Hansen         : Spin unrestricted coupled pair/coupled cluster methods
   Dimitrios Liakos       : Extrapolation schemes; parallel MDCI
   Robert Izsak           : Overlap fitted RIJCOSX, COSX-SCS-MP3
   Christian Kollmar      : KDIIS, OOCD, Brueckner-CCSD(T), CCSD density
   Simone Kossmann        : Meta GGA functionals, TD-DFT gradient, OOMP2, MP2 Hessian
   Taras Petrenko         : DFT Hessian,TD-DFT gradient, ASA and ECA modules, normal mode analysis, Resonance Raman, ABS, FL, XAS/XES, NRVS
   Christoph Reimann      : Effective Core Potentials
   Michael Roemelt        : Restricted open shell CIS
   Christoph Riplinger    : Improved optimizer, TS searches, QM/MM, DLPNO-CCSD
   Barbara Sandhoefer     : DKH picture change effects
   Igor Schapiro          : Molecular dynamics
   Kantharuban Sivalingam : CASSCF convergence, NEVPT2
   Boris Wezisla          : Elementary symmetry handling
   Frank Wennmohs         : Technical directorship


 We gratefully acknowledge several colleagues who have allowed us to
 interface, adapt or use parts of their codes:
   Stefan Grimme, W. Hujo, H. Kruse, T. Risthaus : VdW corrections, initial TS optimization,
                                                   DFT functionals, gCP
   Ed Valeev                                     : LibInt (2-el integral package), F12 methods
   Garnet Chan, S. Sharma, R. Olivares           : DMRG
   Ulf Ekstrom                                   : XCFun DFT Library
   Mihaly Kallay                                 : mrcc  (arbitrary order and MRCC methods)
   Andreas Klamt, Michael Diedenhofen            : otool_cosmo (COSMO solvation model)
   Frank Weinhold                                : gennbo (NPA and NBO analysis)
   Christopher J. Cramer and Donald G. Truhlar   : smd solvation model


 Your calculation uses the libint2 library for the computation of 2-el integrals
 For citations please refer to: http://libint.valeyev.net

 This ORCA versions uses:
   CBLAS   interface :  Fast vector & matrix operations
   LAPACKE interface :  Fast linear algebra routines
   SCALAPACK package :  Parallel linear algebra routines


Your calculation utilizes the basis: Ahlrichs-TZV
Cite in your paper:
H - Kr: A. Schaefer, H. Horn and R. Ahlrichs, J. Chem. Phys. 97, 2571 (1992).

The def2-TZV basis will be loaded
Cite in your paper:
 	F. Weigend, R. Ahlrichs, Phys. Chem. Chem. Phys. 2005, 7, 3297.

================================================================================
                                        WARNINGS
                       Please study these warnings very carefully!
================================================================================
Now building the actual basis set


INFO   : the flag for use of LIBINT has been found!

================================================================================
                                       INPUT FILE
================================================================================
NAME = dsgdb9nsd_015218.inp
|  1> ! RI-MP2 RIJK def2-TZVP def2-TZVP/C def2-TZVP/JK TIGHTSCF
|  2> % maxcore 2000
|  3> % mp2 density relaxed end
|  4> *xyz 0 1
|  5>  C       -0.3228996918     1.4378427319     0.1436976316 
|  6>  N        0.0269860061     0.0207573282     0.0077448260 
|  7>  C        0.5074846275    -0.5259019158    -1.2628131752 
|  8>  C        0.7512823457     0.2979986040    -2.4879919559 
|  9>  O        1.0979359489     1.4531719961    -2.4971738100 
| 10>  C        1.4146722083    -0.3849750854    -0.0494305165 
| 11>  C        2.4966861042     0.5722671569    -0.0391344325 
| 12>  N        3.3855527449     1.3065012774     0.0462030084 
| 13>  H        0.3290864819     2.1207297002    -0.4064094184 
| 14>  H       -1.3501311291     1.5622127603    -0.2082777843 
| 15>  H       -0.2935385976     1.6787082708     1.2095622163 
| 16>  H        0.1398762431    -1.5284306866    -1.4739682717 
| 17>  H        0.5704489702    -0.2575222901    -3.4336577981 
| 18>  H        1.6494617376    -1.2979425879     0.4937571604 
| 19> *
| 20> 
| 21>                          ****END OF INPUT****
================================================================================

                       ****************************
                       * Single Point Calculation *
                       ****************************

---------------------------------
CARTESIAN COORDINATES (ANGSTROEM)
---------------------------------
  C     -0.322900    1.437843    0.143698
  N      0.026986    0.020757    0.007745
  C      0.507485   -0.525902   -1.262813
  C      0.751282    0.297999   -2.487992
  O      1.097936    1.453172   -2.497174
  C      1.414672   -0.384975   -0.049431
  C      2.496686    0.572267   -0.039134
  N      3.385553    1.306501    0.046203
  H      0.329086    2.120730   -0.406409
  H     -1.350131    1.562213   -0.208278
  H     -0.293539    1.678708    1.209562
  H      0.139876   -1.528431   -1.473968
  H      0.570449   -0.257522   -3.433658
  H      1.649462   -1.297943    0.493757

----------------------------
CARTESIAN COORDINATES (A.U.)
----------------------------
  NO LB      ZA    FRAG    MASS        X           Y           Z
   0 C     6.0000    0    12.011         -0.610191986229578          2.717128986940158          0.271549169817108
   1 N     7.0000    0    14.007          0.050996160977328          0.039225665569921          0.014635600094873
   2 C     6.0000    0    12.011          0.959006963150042         -0.993810594166514         -2.386371059435516
   3 C     6.0000    0    12.011          1.419717882622950          0.563135749850850         -4.701623420050081
   4 O     8.0000    0    15.999          2.074798256007958          2.746097098112681         -4.718974609700703
   5 C     6.0000    0    12.011          2.673343042956599         -0.727497479788946         -0.093410138843276
   6 C     6.0000    0    12.011          4.718052979304778          1.081428201978743         -0.073953359831427
   7 N     7.0000    0    14.007          6.397767499806359          2.468929607904279          0.087311032439263
   8 H     1.0000    0     1.008          0.621883325166633          4.007598337450921         -0.768002499022216
   9 H     1.0000    0     1.008         -2.551378078880877          2.952154279884166         -0.393587972106923
  10 H     1.0000    0     1.008         -0.554707559199314          3.172298890560514          2.285741330745820
  11 H     1.0000    0     1.008          0.264327792100792         -2.888315412355222         -2.785396363602230
  12 H     1.0000    0     1.008          1.077992327055405         -0.486646601669220         -6.488672876012071
  13 H     1.0000    0     1.008          3.117030952445878         -2.452756028684011          0.933065809818627

--------------------------------
INTERNAL COORDINATES (ANGSTROEM)
--------------------------------
 C      0   0   0   0.000000     0.000     0.000
 N      1   0   0   1.465958     0.000     0.000
 C      2   1   0   1.464252   121.311     0.000
 C      3   2   1   1.496433   123.941     3.359
 O      4   3   2   1.206101   125.478    30.733
 C      2   1   3   1.446914   120.241    74.925
 C      6   2   1   1.444705   122.155   357.067
 N      7   6   2   1.156056   175.712   113.920
 H      1   2   3   1.092721   114.520   322.296
 H      1   2   3   1.092959   107.725    83.880
 H      1   2   3   1.093136   107.278   200.293
 H      3   2   1   1.088479   113.663   217.702
 H      4   3   2   1.111570   113.258   211.348
 H      6   2   1   1.087975   114.996   140.429

---------------------------
INTERNAL COORDINATES (A.U.)
---------------------------
 C      0   0   0   0.000000     0.000     0.000
 N      1   0   0   2.770260     0.000     0.000
 C      2   1   0   2.767035   121.311     0.000
 C      3   2   1   2.827849   123.941     3.359
 O      4   3   2   2.279200   125.478    30.733
 C      2   1   3   2.734272   120.241    74.925
 C      6   2   1   2.730097   122.155   357.067
 N      7   6   2   2.184630   175.712   113.920
 H      1   2   3   2.064943   114.520   322.296
 H      1   2   3   2.065393   107.725    83.880
 H      1   2   3   2.065727   107.278   200.293
 H      3   2   1   2.056927   113.663   217.702
 H      4   3   2   2.100563   113.258   211.348
 H      6   2   1   2.055974   114.996   140.429

---------------------
BASIS SET INFORMATION
---------------------
There are 4 groups of distinct atoms

 Group   1 Type C   : 11s6p2d1f contracted to 5s3p2d1f pattern {62111/411/11/1}
 Group   2 Type N   : 11s6p2d1f contracted to 5s3p2d1f pattern {62111/411/11/1}
 Group   3 Type O   : 11s6p2d1f contracted to 5s3p2d1f pattern {62111/411/11/1}
 Group   4 Type H   : 5s1p contracted to 3s1p pattern {311/1}

Atom   0C    basis set group =>   1
Atom   1N    basis set group =>   2
Atom   2C    basis set group =>   1
Atom   3C    basis set group =>   1
Atom   4O    basis set group =>   3
Atom   5C    basis set group =>   1
Atom   6C    basis set group =>   1
Atom   7N    basis set group =>   2
Atom   8H    basis set group =>   4
Atom   9H    basis set group =>   4
Atom  10H    basis set group =>   4
Atom  11H    basis set group =>   4
Atom  12H    basis set group =>   4
Atom  13H    basis set group =>   4
-------------------------------
AUXILIARY BASIS SET INFORMATION
-------------------------------
There are 4 groups of distinct atoms

 Group   1 Type C   : 14s10p6d2f1g contracted to 10s8p5d1f1g pattern {5111111111/31111111/21111/2/1}
 Group   2 Type N   : 14s10p6d2f1g contracted to 10s8p4d2f1g pattern {5111111111/31111111/3111/11/1}
 Group   3 Type O   : 14s10p6d2f1g contracted to 10s8p4d2f1g pattern {5111111111/31111111/3111/11/1}
 Group   4 Type H   : 4s2p2d contracted to 2s2p2d pattern {31/11/11}

Atom   0C    basis set group =>   1
Atom   1N    basis set group =>   2
Atom   2C    basis set group =>   1
Atom   3C    basis set group =>   1
Atom   4O    basis set group =>   3
Atom   5C    basis set group =>   1
Atom   6C    basis set group =>   1
Atom   7N    basis set group =>   2
Atom   8H    basis set group =>   4
Atom   9H    basis set group =>   4
Atom  10H    basis set group =>   4
Atom  11H    basis set group =>   4
Atom  12H    basis set group =>   4
Atom  13H    basis set group =>   4
------------------------------------------------------------------------------
                           ORCA GTO INTEGRAL CALCULATION
                           -- RI-GTO INTEGRALS CHOSEN --
------------------------------------------------------------------------------

                         BASIS SET STATISTICS AND STARTUP INFO

Gaussian basis set:
 # of primitive gaussian shells          ...  196
 # of primitive gaussian functions       ...  416
 # of contracted shells                  ...  112
 # of contracted basis functions         ...  284
 Highest angular momentum                ...    3
 Maximum contraction depth               ...    6
Auxiliary gaussian basis set:
 # of primitive gaussian shells          ...  312
 # of primitive gaussian functions       ...  896
 # of contracted shells                  ...  236
 # of contracted aux-basis functions     ...  714
 Highest angular momentum                ...    4
 Maximum contraction depth               ...    5
Ratio of auxiliary to basis functions    ...  2.51
Integral package used                  ... LIBINT
 One Electron integrals                  ... done
 Ordering auxiliary basis shells         ... done
 Integral threshhold             Thresh  ...  2.500e-11
 Primitive cut-off               TCut    ...  2.500e-12
 Pre-screening matrix                    ... done
 Shell pair data                         ... 
 Ordering of the shell pairs             ... done (   0.001 sec) 5967 of 6328 pairs
 Determination of significant pairs      ... done (   0.000 sec)
 Creation of shell pair data             ... done (   0.001 sec)
 Storage of shell pair data              ... done (   0.001 sec)
 Shell pair data done in (   0.004 sec)
 Computing two index integrals           ... done
 Cholesky decomposition of the V-matrix  ... done


Timings:
 Total evaluation time                   ...   0.300 sec (  0.005 min)
 One electron matrix time                ...   0.056 sec (  0.001 min) = 18.7%
 Schwartz matrix evaluation time         ...   0.175 sec (  0.003 min) = 58.4%
 Two index repulsion integral time       ...   0.016 sec (  0.000 min) =  5.3%
 Cholesky decomposition of V             ...   0.021 sec (  0.000 min) =  7.0%
 Three index repulsion integral time     ...   0.000 sec (  0.000 min) =  0.0%

-------------------------------------------------------------------------------
                                 ORCA SCF
-------------------------------------------------------------------------------

------------
SCF SETTINGS
------------
Hamiltonian:
 Ab initio Hamiltonian  Method          .... Hartree-Fock(GTOs)
 RI-approximation to the Coulomb term is turned on
   Number of auxiliary basis functions  .... 714
   RI-JK (J+K treated both via RI)      .... on


General Settings:
 Integral files         IntName         .... dsgdb9nsd_015218
 Hartree-Fock type      HFTyp           .... RHF
 Total Charge           Charge          ....    0
 Multiplicity           Mult            ....    1
 Number of Electrons    NEL             ....   58
 Basis Dimension        Dim             ....  284
 Nuclear Repulsion      ENuc            ....    347.7845852049 Eh

Convergence Acceleration:
 DIIS                   CNVDIIS         .... on
   Start iteration      DIISMaxIt       ....    12
   Startup error        DIISStart       ....  0.200000
   # of expansion vecs  DIISMaxEq       ....     5
   Bias factor          DIISBfac        ....   1.050
   Max. coefficient     DIISMaxC        ....  10.000
 Newton-Raphson         CNVNR           .... off
 SOSCF                  CNVSOSCF        .... on
   Start iteration      SOSCFMaxIt      ....   150
   Startup grad/error   SOSCFStart      ....  0.003300
 Level Shifting         CNVShift        .... on
   Level shift para.    LevelShift      ....    0.2500
   Turn off err/grad.   ShiftErr        ....    0.0010
 Zerner damping         CNVZerner       .... off
 Static damping         CNVDamp         .... on
   Fraction old density DampFac         ....    0.7000
   Max. Damping (<1)    DampMax         ....    0.9800
   Min. Damping (>=0)   DampMin         ....    0.0000
   Turn off err/grad.   DampErr         ....    0.1000
 Fernandez-Rico         CNVRico         .... off

SCF Procedure:
 Maximum # iterations   MaxIter         ....   125
 SCF integral mode      SCFMode         .... Direct
   Integral package                     .... LIBINT
 Reset frequeny         DirectResetFreq ....    20
 Integral Threshold     Thresh          ....  2.500e-11 Eh
 Primitive CutOff       TCut            ....  2.500e-12 Eh

Convergence Tolerance:
 Convergence Check Mode ConvCheckMode   .... Total+1el-Energy
 Energy Change          TolE            ....  1.000e-08 Eh
 1-El. energy change                    ....  1.000e-05 Eh
 Orbital Gradient       TolG            ....  1.000e-05
 Orbital Rotation angle TolX            ....  1.000e-05
 DIIS Error             TolErr          ....  5.000e-07


Diagonalization of the overlap matrix:
Smallest eigenvalue                        ... 8.574e-05
Time for diagonalization                   ...    0.021 sec
Threshold for overlap eigenvalues          ... 1.000e-08
Number of eigenvalues below threshold      ... 0
Time for construction of square roots      ...    0.010 sec
Total time needed                          ...    0.032 sec

-------------------
DFT GRID GENERATION
-------------------

General Integration Accuracy     IntAcc      ...  4.340
Radial Grid Type                 RadialGrid  ... Gauss-Chebyshev
Angular Grid (max. acc.)         AngularGrid ... Lebedev-110
Angular grid pruning method      GridPruning ... 3 (G Style)
Weight generation scheme         WeightScheme... Becke
Basis function cutoff            BFCut       ...    1.0000e-11
Integration weight cutoff        WCut        ...    1.0000e-14
Grids for H and He will be reduced by one unit

# of grid points (after initial pruning)     ...  18164 (   0.0 sec)
# of grid points (after weights+screening)   ...  16919 (   0.1 sec)
nearest neighbour list constructed           ...    0.0 sec
Grid point re-assignment to atoms done       ...    0.0 sec
Grid point division into batches done        ...    0.0 sec
Reduced shell lists constructed in    0.9 sec

Total number of grid points                  ...    16919
Total number of batches                      ...      271
Average number of points per batch           ...       62
Average number of grid points per atom       ...     1208
Average number of shells per batch           ...    79.22 (70.73%)
Average number of basis functions per batch  ...   208.08 (73.27%)
Average number of large shells per batch     ...    62.66 (79.10%)
Average number of large basis fcns per batch ...   161.14 (77.44%)
Average number of aux-shells per batch       ...    79.22 (33.57%)
Average number of aux functions per batch    ...   208.08 (  inf%)
Maximum spatial batch extension              ...  25.60, 18.47, 22.94 au
Average spatial batch extension              ...   4.03,  3.79,  3.92 au

Time for grid setup =    0.976 sec

------------------------------
INITIAL GUESS: MODEL POTENTIAL
------------------------------
Loading Hartree-Fock densities                     ... done
Calculating cut-offs                               ... done
Setting up the integral package                    ... done
Initializing the effective Hamiltonian             ... done
Starting the Coulomb interaction                   ... done (   0.4 sec)
Reading the grid                                   ... done
Mapping shells                                     ... done
Starting the XC term evaluation                    ... done (   0.5 sec)
Transforming the Hamiltonian                       ... done (   0.0 sec)
Diagonalizing the Hamiltonian                      ... done (   0.0 sec)
Back transforming the eigenvectors                 ... done (   0.0 sec)
Now organizing SCF variables                       ... done
                      ------------------
                      INITIAL GUESS DONE (   2.0 sec)
                      ------------------
--------------
SCF ITERATIONS
--------------
ITER       Energy         Delta-E        Max-DP      RMS-DP      [F,P]     Damp
  0   -376.3300409640   0.000000000000 0.03856463  0.00089669  0.2873256 0.7000
  1   -376.1958758840   0.134165079989 0.03987061  0.00094987  0.2797384 0.7000
                               ***Turning on DIIS***
  2   -376.2265155933  -0.030639709295 0.02679815  0.00066427  0.1874219 0.7000
  3   -376.8447446649  -0.618229071671 0.01433528  0.00037385  0.1331922 0.7000
  4   -376.4814620763   0.363282588630 0.04116245  0.00100936  0.0859867 0.0000
  5   -376.5732015311  -0.091739454754 0.01537445  0.00030594  0.0312725 0.0000
  6   -376.5578986273   0.015302903736 0.00603520  0.00012349  0.0127253 0.0000
  7   -376.5939506572  -0.036052029840 0.00276640  0.00006293  0.0099255 0.0000
  8   -376.6051097641  -0.011159106913 0.00239004  0.00005431  0.0073968 0.0000
                      *** Initiating the SOSCF procedure ***
                           *** Shutting down DIIS ***
                      *** Re-Reading the Fockian *** 
                      *** Removing any level shift *** 
ITER      Energy       Delta-E        Grad      Rot      Max-DP    RMS-DP
  9   -376.65083249  -0.0457227294  0.000540  0.000540  0.001008  0.000016
 10   -376.65244574  -0.0016132439  0.000220  0.000375  0.000289  0.000009
 11   -376.65244775  -0.0000020115  0.000132  0.000422  0.000655  0.000011
 12   -376.65244874  -0.0000009903  0.000027  0.000054  0.000116  0.000003
 13   -376.65244881  -0.0000000681  0.000014  0.000047  0.000087  0.000002
 14   -376.65244882  -0.0000000141  0.000006  0.000016  0.000013  0.000000
 15   -376.65244882  -0.0000000021  0.000003  0.000009  0.000006  0.000000
                  ***Gradient check signals convergence***
              ***Rediagonalizing the Fockian in SOSCF/NRSCF***

               *****************************************************
               *                     SUCCESS                       *
               *           SCF CONVERGED AFTER  16 CYCLES          *
               *****************************************************


----------------
TOTAL SCF ENERGY
----------------

Total Energy       :         -376.65244882 Eh          -10249.23419 eV

Components:
Nuclear Repulsion  :          347.78458520 Eh            9463.69969 eV
Electronic Energy  :         -724.43703403 Eh          -19712.93388 eV

One Electron Energy:        -1200.89814656 Eh          -32678.09989 eV
Two Electron Energy:          476.46111253 Eh           12965.16601 eV

Virial components:
Potential Energy   :         -752.71998601 Eh          -20482.55213 eV
Kinetic Energy     :          376.06753718 Eh           10233.31794 eV
Virial Ratio       :            2.00155534


---------------
SCF CONVERGENCE
---------------

  Last Energy change         ...   -5.7651e-10  Tolerance :   1.0000e-08
  Last MAX-Density change    ...    4.5750e-06  Tolerance :   1.0000e-07
  Last RMS-Density change    ...    9.8121e-08  Tolerance :   5.0000e-09
  Last Orbital Gradient      ...    1.2770e-06  Tolerance :   1.0000e-05
  Last Orbital Rotation      ...    6.3533e-06  Tolerance :   1.0000e-05

             **** THE GBW FILE WAS UPDATED (dsgdb9nsd_015218.gbw) ****
             **** DENSITY FILE WAS UPDATED (dsgdb9nsd_015218.scfp.tmp) ****
             **** ENERGY FILE WAS UPDATED (dsgdb9nsd_015218.en.tmp) ****
----------------
ORBITAL ENERGIES
----------------

  NO   OCC          E(Eh)            E(eV) 
   0   2.0000     -20.580923      -560.0354 
   1   2.0000     -15.612257      -424.8311 
   2   2.0000     -15.581974      -424.0071 
   3   2.0000     -11.359499      -309.1077 
   4   2.0000     -11.334510      -308.4277 
   5   2.0000     -11.311705      -307.8071 
   6   2.0000     -11.283295      -307.0341 
   7   2.0000     -11.264010      -306.5093 
   8   2.0000      -1.421611       -38.6840 
   9   2.0000      -1.323918       -36.0256 
  10   2.0000      -1.223731       -33.2994 
  11   2.0000      -1.041599       -28.3433 
  12   2.0000      -0.976451       -26.5706 
  13   2.0000      -0.913988       -24.8709 
  14   2.0000      -0.794678       -21.6243 
  15   2.0000      -0.758416       -20.6376 
  16   2.0000      -0.699638       -19.0381 
  17   2.0000      -0.672630       -18.3032 
  18   2.0000      -0.645098       -17.5540 
  19   2.0000      -0.620483       -16.8842 
  20   2.0000      -0.599811       -16.3217 
  21   2.0000      -0.570690       -15.5293 
  22   2.0000      -0.558632       -15.2012 
  23   2.0000      -0.533641       -14.5211 
  24   2.0000      -0.503929       -13.7126 
  25   2.0000      -0.494331       -13.4514 
  26   2.0000      -0.465933       -12.6787 
  27   2.0000      -0.437694       -11.9103 
  28   2.0000      -0.402901       -10.9635 
  29   0.0000       0.083463         2.2712 
  30   0.0000       0.128959         3.5092 
  31   0.0000       0.149599         4.0708 
  32   0.0000       0.157548         4.2871 
  33   0.0000       0.162879         4.4322 
  34   0.0000       0.182872         4.9762 
  35   0.0000       0.199522         5.4293 
  36   0.0000       0.212651         5.7865 
  37   0.0000       0.216203         5.8832 
  38   0.0000       0.234324         6.3763 
  39   0.0000       0.246515         6.7080 
  40   0.0000       0.256836         6.9889 
  41   0.0000       0.286908         7.8072 
  42   0.0000       0.296799         8.0763 
  43   0.0000       0.318807         8.6752 
  44   0.0000       0.328584         8.9412 
  45   0.0000       0.344073         9.3627 
  46   0.0000       0.347512         9.4563 
  47   0.0000       0.381875        10.3913 
  48   0.0000       0.388948        10.5838 
  49   0.0000       0.396874        10.7995 
  50   0.0000       0.410031        11.1575 
  51   0.0000       0.425046        11.5661 
  52   0.0000       0.442549        12.0424 
  53   0.0000       0.464564        12.6414 
  54   0.0000       0.477050        12.9812 
  55   0.0000       0.490279        13.3412 
  56   0.0000       0.505994        13.7688 
  57   0.0000       0.515485        14.0270 
  58   0.0000       0.538873        14.6635 
  59   0.0000       0.540973        14.7206 
  60   0.0000       0.554264        15.0823 
  61   0.0000       0.566101        15.4044 
  62   0.0000       0.573727        15.6119 
  63   0.0000       0.596714        16.2374 
  64   0.0000       0.607139        16.5211 
  65   0.0000       0.614274        16.7152 
  66   0.0000       0.618302        16.8249 
  67   0.0000       0.640371        17.4254 
  68   0.0000       0.652289        17.7497 
  69   0.0000       0.676187        18.4000 
  70   0.0000       0.681878        18.5549 
  71   0.0000       0.694229        18.8909 
  72   0.0000       0.699932        19.0461 
  73   0.0000       0.702422        19.1139 
  74   0.0000       0.724941        19.7267 
  75   0.0000       0.747692        20.3457 
  76   0.0000       0.754232        20.5237 
  77   0.0000       0.782439        21.2912 
  78   0.0000       0.805942        21.9308 
  79   0.0000       0.850992        23.1567 
  80   0.0000       0.856793        23.3145 
  81   0.0000       0.882056        24.0020 
  82   0.0000       0.903825        24.5943 
  83   0.0000       0.924730        25.1632 
  84   0.0000       0.946726        25.7617 
  85   0.0000       1.013920        27.5902 
  86   0.0000       1.036856        28.2143 
  87   0.0000       1.052575        28.6420 
  88   0.0000       1.064729        28.9728 
  89   0.0000       1.083046        29.4712 
  90   0.0000       1.110608        30.2212 
  91   0.0000       1.131456        30.7885 
  92   0.0000       1.161340        31.6017 
  93   0.0000       1.176126        32.0040 
  94   0.0000       1.215850        33.0850 
  95   0.0000       1.222855        33.2756 
  96   0.0000       1.241469        33.7821 
  97   0.0000       1.269819        34.5535 
  98   0.0000       1.281763        34.8785 
  99   0.0000       1.295680        35.2572 
 100   0.0000       1.326687        36.1010 
 101   0.0000       1.351002        36.7626 
 102   0.0000       1.410687        38.3867 
 103   0.0000       1.432186        38.9718 
 104   0.0000       1.449212        39.4351 
 105   0.0000       1.483525        40.3688 
 106   0.0000       1.494883        40.6778 
 107   0.0000       1.508701        41.0538 
 108   0.0000       1.538933        41.8765 
 109   0.0000       1.546103        42.0716 
 110   0.0000       1.570966        42.7482 
 111   0.0000       1.611839        43.8604 
 112   0.0000       1.645788        44.7842 
 113   0.0000       1.683038        45.7978 
 114   0.0000       1.693109        46.0718 
 115   0.0000       1.718749        46.7695 
 116   0.0000       1.735263        47.2189 
 117   0.0000       1.742771        47.4232 
 118   0.0000       1.762162        47.9509 
 119   0.0000       1.771812        48.2134 
 120   0.0000       1.803787        49.0835 
 121   0.0000       1.819279        49.5051 
 122   0.0000       1.830991        49.8238 
 123   0.0000       1.849907        50.3385 
 124   0.0000       1.870515        50.8993 
 125   0.0000       1.900012        51.7020 
 126   0.0000       1.907673        51.9104 
 127   0.0000       1.930414        52.5292 
 128   0.0000       1.951295        53.0974 
 129   0.0000       1.981280        53.9134 
 130   0.0000       1.999554        54.4106 
 131   0.0000       2.056766        55.9675 
 132   0.0000       2.095336        57.0170 
 133   0.0000       2.099642        57.1342 
 134   0.0000       2.132525        58.0290 
 135   0.0000       2.183757        59.4231 
 136   0.0000       2.201512        59.9062 
 137   0.0000       2.217931        60.3530 
 138   0.0000       2.254854        61.3577 
 139   0.0000       2.286070        62.2071 
 140   0.0000       2.304210        62.7007 
 141   0.0000       2.323247        63.2188 
 142   0.0000       2.343498        63.7698 
 143   0.0000       2.348889        63.9165 
 144   0.0000       2.377925        64.7066 
 145   0.0000       2.411978        65.6333 
 146   0.0000       2.479957        67.4831 
 147   0.0000       2.492111        67.8138 
 148   0.0000       2.511632        68.3450 
 149   0.0000       2.523937        68.6798 
 150   0.0000       2.568709        69.8981 
 151   0.0000       2.620209        71.2995 
 152   0.0000       2.625467        71.4426 
 153   0.0000       2.659587        72.3710 
 154   0.0000       2.678808        72.8941 
 155   0.0000       2.684044        73.0365 
 156   0.0000       2.716152        73.9103 
 157   0.0000       2.732718        74.3610 
 158   0.0000       2.776550        75.5538 
 159   0.0000       2.787212        75.8439 
 160   0.0000       2.819819        76.7312 
 161   0.0000       2.832722        77.0823 
 162   0.0000       2.845480        77.4294 
 163   0.0000       2.869899        78.0939 
 164   0.0000       2.889023        78.6143 
 165   0.0000       2.904498        79.0354 
 166   0.0000       2.923632        79.5561 
 167   0.0000       2.940894        80.0258 
 168   0.0000       2.963694        80.6462 
 169   0.0000       3.003919        81.7408 
 170   0.0000       3.030918        82.4755 
 171   0.0000       3.038610        82.6848 
 172   0.0000       3.073184        83.6256 
 173   0.0000       3.078313        83.7652 
 174   0.0000       3.107000        84.5458 
 175   0.0000       3.121280        84.9344 
 176   0.0000       3.142701        85.5172 
 177   0.0000       3.170114        86.2632 
 178   0.0000       3.180100        86.5349 
 179   0.0000       3.194356        86.9228 
 180   0.0000       3.231482        87.9331 
 181   0.0000       3.250581        88.4528 
 182   0.0000       3.267561        88.9149 
 183   0.0000       3.291937        89.5782 
 184   0.0000       3.307665        90.0061 
 185   0.0000       3.324810        90.4727 
 186   0.0000       3.366837        91.6163 
 187   0.0000       3.383454        92.0685 
 188   0.0000       3.403881        92.6243 
 189   0.0000       3.423015        93.1450 
 190   0.0000       3.424619        93.1886 
 191   0.0000       3.442665        93.6797 
 192   0.0000       3.472445        94.4900 
 193   0.0000       3.483638        94.7946 
 194   0.0000       3.499236        95.2191 
 195   0.0000       3.539806        96.3230 
 196   0.0000       3.552495        96.6683 
 197   0.0000       3.583130        97.5019 
 198   0.0000       3.600069        97.9629 
 199   0.0000       3.622559        98.5748 
 200   0.0000       3.634182        98.8911 
 201   0.0000       3.649077        99.2964 
 202   0.0000       3.670388        99.8763 
 203   0.0000       3.694574       100.5345 
 204   0.0000       3.716903       101.1421 
 205   0.0000       3.742791       101.8465 
 206   0.0000       3.782228       102.9197 
 207   0.0000       3.829252       104.1992 
 208   0.0000       3.839433       104.4763 
 209   0.0000       3.844582       104.6164 
 210   0.0000       3.910515       106.4105 
 211   0.0000       3.927355       106.8688 
 212   0.0000       3.964727       107.8857 
 213   0.0000       3.983307       108.3913 
 214   0.0000       4.027495       109.5937 
 215   0.0000       4.091903       111.3463 
 216   0.0000       4.103318       111.6570 
 217   0.0000       4.157487       113.1310 
 218   0.0000       4.179716       113.7358 
 219   0.0000       4.221409       114.8704 
 220   0.0000       4.240973       115.4027 
 221   0.0000       4.288022       116.6830 
 222   0.0000       4.309270       117.2612 
 223   0.0000       4.319871       117.5497 
 224   0.0000       4.345285       118.2412 
 225   0.0000       4.349296       118.3504 
 226   0.0000       4.395359       119.6038 
 227   0.0000       4.477851       121.8485 
 228   0.0000       4.487680       122.1160 
 229   0.0000       4.549764       123.8054 
 230   0.0000       4.583619       124.7266 
 231   0.0000       4.627269       125.9144 
 232   0.0000       4.656267       126.7035 
 233   0.0000       4.693174       127.7078 
 234   0.0000       4.736896       128.8975 
 235   0.0000       4.790108       130.3455 
 236   0.0000       4.863776       132.3501 
 237   0.0000       4.873951       132.6269 
 238   0.0000       4.927562       134.0858 
 239   0.0000       4.991817       135.8343 
 240   0.0000       5.002501       136.1250 
 241   0.0000       5.010527       136.3434 
 242   0.0000       5.064271       137.8058 
 243   0.0000       5.107933       138.9939 
 244   0.0000       5.135122       139.7338 
 245   0.0000       5.171445       140.7222 
 246   0.0000       5.301349       144.2571 
 247   0.0000       5.367630       146.0607 
 248   0.0000       5.474512       148.9690 
 249   0.0000       5.503960       149.7704 
 250   0.0000       5.551910       151.0752 
 251   0.0000       5.602679       152.4567 
 252   0.0000       5.619121       152.9040 
 253   0.0000       5.630676       153.2185 
 254   0.0000       5.648054       153.6914 
 255   0.0000       5.714667       155.5040 
 256   0.0000       5.751771       156.5137 
 257   0.0000       5.827353       158.5703 
 258   0.0000       5.932452       161.4302 
 259   0.0000       5.970901       162.4765 
 260   0.0000       6.027561       164.0183 
 261   0.0000       6.085992       165.6083 
 262   0.0000       6.114126       166.3738 
 263   0.0000       6.117361       166.4618 
 264   0.0000       6.180906       168.1910 
 265   0.0000       6.246918       169.9873 
 266   0.0000       6.360961       173.0906 
 267   0.0000       6.554203       178.3489 
 268   0.0000       6.568213       178.7302 
 269   0.0000       6.825850       185.7408 
 270   0.0000       6.889705       187.4784 
 271   0.0000       6.905476       187.9075 
 272   0.0000       6.986250       190.1055 
 273   0.0000       7.308119       198.8640 
 274   0.0000       7.472442       203.3355 
 275   0.0000       7.586360       206.4354 
 276   0.0000      23.477294       638.8497 
 277   0.0000      23.555688       640.9829 
 278   0.0000      23.695946       644.7995 
 279   0.0000      23.837795       648.6594 
 280   0.0000      24.560636       668.3289 
 281   0.0000      33.460511       910.5068 
 282   0.0000      33.815362       920.1628 
 283   0.0000      45.409933      1235.6671 

                    ********************************
                    * MULLIKEN POPULATION ANALYSIS *
                    ********************************

-----------------------
MULLIKEN ATOMIC CHARGES
-----------------------
   0 C :   -0.248448
   1 N :   -0.251565
   2 C :    0.013028
   3 C :    0.222726
   4 O :   -0.392728
   5 C :    0.137865
   6 C :   -0.142604
   7 N :   -0.145070
   8 H :    0.170007
   9 H :    0.120627
  10 H :    0.126993
  11 H :    0.132194
  12 H :    0.104922
  13 H :    0.152052
Sum of atomic charges:    0.0000000

--------------------------------
MULLIKEN REDUCED ORBITAL CHARGES
--------------------------------
  0 C s       :     3.234739  s :     3.234739
      pz      :     1.083017  p :     2.909767
      px      :     1.065719
      py      :     0.761031
      dz2     :     0.018268  d :     0.097064
      dxz     :     0.008417
      dyz     :     0.022641
      dx2y2   :     0.022998
      dxy     :     0.024739
      f0      :     0.001451  f :     0.006878
      f+1     :     0.000161
      f-1     :     0.000857
      f+2     :     0.000721
      f-2     :     0.000524
      f+3     :     0.001715
      f-3     :     0.001449
  1 N s       :     3.543903  s :     3.543903
      pz      :     1.178952  p :     3.612275
      px      :     1.165095
      py      :     1.268228
      dz2     :     0.024689  d :     0.090212
      dxz     :     0.014379
      dyz     :     0.011826
      dx2y2   :     0.027371
      dxy     :     0.011948
      f0      :     0.000780  f :     0.005176
      f+1     :     0.000587
      f-1     :     0.000729
      f+2     :     0.000724
      f-2     :     0.000508
      f+3     :     0.000960
      f-3     :     0.000887
  2 C s       :     3.070789  s :     3.070789
      pz      :     0.811681  p :     2.777455
      px      :     0.977414
      py      :     0.988361
      dz2     :     0.022297  d :     0.126490
      dxz     :     0.033606
      dyz     :     0.036381
      dx2y2   :     0.020966
      dxy     :     0.013240
      f0      :     0.002420  f :     0.012238
      f+1     :     0.002505
      f-1     :     0.002736
      f+2     :     0.001911
      f-2     :     0.001464
      f+3     :     0.000774
      f-3     :     0.000428
  3 C s       :     3.188969  s :     3.188969
      pz      :     0.938144  p :     2.377253
      px      :     0.666501
      py      :     0.772608
      dz2     :     0.018678  d :     0.194432
      dxz     :     0.015831
      dyz     :     0.098019
      dx2y2   :     0.023449
      dxy     :     0.038455
      f0      :     0.002796  f :     0.016620
      f+1     :     0.000886
      f-1     :     0.002602
      f+2     :     0.002684
      f-2     :     0.001489
      f+3     :     0.002880
      f-3     :     0.003283
  4 O s       :     3.854749  s :     3.854749
      pz      :     1.840451  p :     4.498733
      px      :     1.316044
      py      :     1.342237
      dz2     :     0.004230  d :     0.037096
      dxz     :     0.000768
      dyz     :     0.007423
      dx2y2   :     0.011540
      dxy     :     0.013135
      f0      :     0.000268  f :     0.002150
      f+1     :     0.000124
      f-1     :     0.000385
      f+2     :     0.000221
      f-2     :     0.000099
      f+3     :     0.000508
      f-3     :     0.000546
  5 C s       :     3.025047  s :     3.025047
      pz      :     0.994483  p :     2.689667
      px      :     0.748623
      py      :     0.946562
      dz2     :     0.023377  d :     0.135751
      dxz     :     0.032731
      dyz     :     0.015760
      dx2y2   :     0.026041
      dxy     :     0.037842
      f0      :     0.001712  f :     0.011670
      f+1     :     0.001836
      f-1     :     0.000651
      f+2     :     0.001921
      f-2     :     0.001123
      f+3     :     0.002250
      f-3     :     0.002176
  6 C s       :     3.215046  s :     3.215046
      pz      :     0.902505  p :     2.797484
      px      :     0.972904
      py      :     0.922076
      dz2     :     0.009281  d :     0.112241
      dxz     :     0.023307
      dyz     :     0.017031
      dx2y2   :     0.035281
      dxy     :     0.027341
      f0      :     0.002496  f :     0.017833
      f+1     :     0.001202
      f-1     :     0.000949
      f+2     :     0.000218
      f-2     :     0.004041
      f+3     :     0.005401
      f-3     :     0.003525
  7 N s       :     3.706532  s :     3.706532
      pz      :     1.060129  p :     3.379917
      px      :     1.185088
      py      :     1.134700
      dz2     :     0.003012  d :     0.055611
      dxz     :     0.012821
      dyz     :     0.009081
      dx2y2   :     0.021794
      dxy     :     0.008902
      f0      :     0.000440  f :     0.003009
      f+1     :     0.000186
      f-1     :     0.000155
      f+2     :     0.000040
      f-2     :     0.000699
      f+3     :     0.000938
      f-3     :     0.000552
  8 H s       :     0.807812  s :     0.807812
      pz      :     0.006921  p :     0.022181
      px      :     0.007508
      py      :     0.007752
  9 H s       :     0.857614  s :     0.857614
      pz      :     0.004748  p :     0.021759
      px      :     0.014004
      py      :     0.003006
 10 H s       :     0.851242  s :     0.851242
      pz      :     0.014594  p :     0.021765
      px      :     0.003652
      py      :     0.003518
 11 H s       :     0.844016  s :     0.844016
      pz      :     0.003538  p :     0.023789
      px      :     0.005514
      py      :     0.014737
 12 H s       :     0.874232  s :     0.874232
      pz      :     0.013375  p :     0.020846
      px      :     0.002235
      py      :     0.005236
 13 H s       :     0.823959  s :     0.823959
      pz      :     0.007495  p :     0.023988
      px      :     0.003434
      py      :     0.013059


                     *******************************
                     * LOEWDIN POPULATION ANALYSIS *
                     *******************************

----------------------
LOEWDIN ATOMIC CHARGES
----------------------
   0 C :   -0.271445
   1 N :    0.120215
   2 C :   -0.192104
   3 C :   -0.222548
   4 O :    0.086976
   5 C :   -0.190684
   6 C :   -0.154171
   7 N :    0.053268
   8 H :    0.117217
   9 H :    0.113063
  10 H :    0.114834
  11 H :    0.144065
  12 H :    0.121188
  13 H :    0.160127

-------------------------------
LOEWDIN REDUCED ORBITAL CHARGES
-------------------------------
  0 C s       :     2.837789  s :     2.837789
      pz      :     1.081086  p :     3.046678
      px      :     1.064711
      py      :     0.900880
      dz2     :     0.067855  d :     0.347207
      dxz     :     0.021659
      dyz     :     0.076812
      dx2y2   :     0.102617
      dxy     :     0.078265
      f0      :     0.005818  f :     0.039772
      f+1     :     0.001072
      f-1     :     0.005119
      f+2     :     0.005485
      f-2     :     0.004578
      f+3     :     0.008417
      f-3     :     0.009283
  1 N s       :     2.994360  s :     2.994360
      pz      :     1.155599  p :     3.598155
      px      :     1.179618
      py      :     1.262938
      dz2     :     0.051233  d :     0.266655
      dxz     :     0.049065
      dyz     :     0.048653
      dx2y2   :     0.064202
      dxy     :     0.053503
      f0      :     0.004312  f :     0.020614
      f+1     :     0.002120
      f-1     :     0.002154
      f+2     :     0.003271
      f-2     :     0.001890
      f+3     :     0.003426
      f-3     :     0.003440
  2 C s       :     2.736623  s :     2.736623
      pz      :     0.932127  p :     2.871479
      px      :     0.956979
      py      :     0.982373
      dz2     :     0.152221  d :     0.519009
      dxz     :     0.116732
      dyz     :     0.126131
      dx2y2   :     0.071836
      dxy     :     0.052088
      f0      :     0.015596  f :     0.064993
      f+1     :     0.012652
      f-1     :     0.011596
      f+2     :     0.010325
      f-2     :     0.009314
      f+3     :     0.003439
      f-3     :     0.002071
  3 C s       :     2.818567  s :     2.818567
      pz      :     0.999364  p :     2.642625
      px      :     0.673770
      py      :     0.969491
      dz2     :     0.084368  d :     0.663590
      dxz     :     0.055579
      dyz     :     0.299751
      dx2y2   :     0.109903
      dxy     :     0.113989
      f0      :     0.021387  f :     0.097766
      f+1     :     0.005548
      f-1     :     0.011358
      f+2     :     0.017432
      f-2     :     0.009427
      f+3     :     0.015944
      f-3     :     0.016670
  4 O s       :     3.406563  s :     3.406563
      pz      :     1.675812  p :     4.428827
      px      :     1.260629
      py      :     1.492386
      dz2     :     0.009085  d :     0.071760
      dxz     :     0.002141
      dyz     :     0.021521
      dx2y2   :     0.021567
      dxy     :     0.017447
      f0      :     0.000843  f :     0.005875
      f+1     :     0.000183
      f-1     :     0.001017
      f+2     :     0.000977
      f-2     :     0.000432
      f+3     :     0.001265
      f-3     :     0.001158
  5 C s       :     2.714312  s :     2.714312
      pz      :     0.964779  p :     2.847912
      px      :     0.896877
      py      :     0.986256
      dz2     :     0.076145  d :     0.559130
      dxz     :     0.122269
      dyz     :     0.076829
      dx2y2   :     0.142808
      dxy     :     0.141080
      f0      :     0.011071  f :     0.069331
      f+1     :     0.008344
      f-1     :     0.003511
      f+2     :     0.012120
      f-2     :     0.007559
      f+3     :     0.015316
      f-3     :     0.011410
  6 C s       :     2.819553  s :     2.819553
      pz      :     0.833976  p :     2.844798
      px      :     1.029256
      py      :     0.981566
      dz2     :     0.041295  d :     0.429753
      dxz     :     0.082537
      dyz     :     0.060916
      dx2y2   :     0.125665
      dxy     :     0.119340
      f0      :     0.006719  f :     0.060066
      f+1     :     0.005884
      f-1     :     0.004491
      f+2     :     0.000640
      f-2     :     0.010963
      f+3     :     0.016176
      f-3     :     0.015192
  7 N s       :     3.305091  s :     3.305091
      pz      :     1.018754  p :     3.511630
      px      :     1.292291
      py      :     1.200585
      dz2     :     0.011583  d :     0.114673
      dxz     :     0.020047
      dyz     :     0.014096
      dx2y2   :     0.034766
      dxy     :     0.034182
      f0      :     0.001613  f :     0.015338
      f+1     :     0.001591
      f-1     :     0.001173
      f+2     :     0.000157
      f-2     :     0.002631
      f+3     :     0.004093
      f-3     :     0.004080
  8 H s       :     0.817248  s :     0.817248
      pz      :     0.021159  p :     0.065536
      px      :     0.022873
      py      :     0.021504
  9 H s       :     0.827200  s :     0.827200
      pz      :     0.015156  p :     0.059737
      px      :     0.035224
      py      :     0.009358
 10 H s       :     0.825323  s :     0.825323
      pz      :     0.037187  p :     0.059843
      px      :     0.012383
      py      :     0.010273
 11 H s       :     0.796749  s :     0.796749
      pz      :     0.009129  p :     0.059186
      px      :     0.015740
      py      :     0.034317
 12 H s       :     0.824972  s :     0.824972
      pz      :     0.032857  p :     0.053840
      px      :     0.006950
      py      :     0.014034
 13 H s       :     0.780558  s :     0.780558
      pz      :     0.019454  p :     0.059316
      px      :     0.009193
      py      :     0.030669


                      *****************************
                      * MAYER POPULATION ANALYSIS *
                      *****************************

  NA   - Mulliken gross atomic population
  ZA   - Total nuclear charge
  QA   - Mulliken gross atomic charge
  VA   - Mayer's total valence
  BVA  - Mayer's bonded valence
  FA   - Mayer's free valence

  ATOM       NA         ZA         QA         VA         BVA        FA
  0 C      6.2484     6.0000    -0.2484     3.8700     3.8700    -0.0000
  1 N      7.2516     7.0000    -0.2516     2.8430     2.8430     0.0000
  2 C      5.9870     6.0000     0.0130     3.8292     3.8292     0.0000
  3 C      5.7773     6.0000     0.2227     3.9482     3.9482     0.0000
  4 O      8.3927     8.0000    -0.3927     2.0008     2.0008     0.0000
  5 C      5.8621     6.0000     0.1379     3.9442     3.9442    -0.0000
  6 C      6.1426     6.0000    -0.1426     4.0024     4.0024    -0.0000
  7 N      7.1451     7.0000    -0.1451     3.0317     3.0317    -0.0000
  8 H      0.8300     1.0000     0.1700     0.9563     0.9563    -0.0000
  9 H      0.8794     1.0000     0.1206     0.9701     0.9701     0.0000
 10 H      0.8730     1.0000     0.1270     0.9677     0.9677    -0.0000
 11 H      0.8678     1.0000     0.1322     0.9577     0.9577    -0.0000
 12 H      0.8951     1.0000     0.1049     0.9701     0.9701     0.0000
 13 H      0.8479     1.0000     0.1521     0.9579     0.9579    -0.0000

  Mayer bond orders larger than 0.1
B(  0-C ,  1-N ) :   0.8879 B(  0-C ,  8-H ) :   0.9712 B(  0-C ,  9-H ) :   0.9837 
B(  0-C , 10-H ) :   0.9802 B(  1-N ,  2-C ) :   0.9591 B(  1-N ,  5-C ) :   0.9808 
B(  2-C ,  3-C ) :   0.9443 B(  2-C ,  5-C ) :   0.9598 B(  2-C , 11-H ) :   0.9607 
B(  3-C ,  4-O ) :   1.9695 B(  3-C , 12-H ) :   0.9997 B(  5-C ,  6-C ) :   0.9739 
B(  5-C , 13-H ) :   0.9535 B(  6-C ,  7-N ) :   3.0101 

-------
TIMINGS
-------

Total SCF time: 0 days 0 hours 1 min 33 sec 

Total time                  ....      93.054 sec
Sum of individual times     ....      95.928 sec  (103.1%)

Fock matrix formation       ....      92.003 sec  ( 98.9%)
Diagonalization             ....       0.454 sec  (  0.5%)
Density matrix formation    ....       0.030 sec  (  0.0%)
Population analysis         ....       0.097 sec  (  0.1%)
Initial guess               ....       1.998 sec  (  2.1%)
Orbital Transformation      ....       0.000 sec  (  0.0%)
Orbital Orthonormalization  ....       0.000 sec  (  0.0%)
DIIS solution               ....       0.127 sec  (  0.1%)
SOSCF solution              ....       0.243 sec  (  0.3%)

   <<< Auxbasis replaced with dsgdb9nsd_015218.AUXC.tmp (Dim=698) >>> 


------------------------------------------------------------------------------
                              ORCA MP2 CALCULATION
------------------------------------------------------------------------------

Freezing NCore=16 chemical core electrons

   <<< Use J-auxbasis for calculation of Separable RI-J derivative contributions dsgdb9nsd_015218.AUXJ.tmp (Dim=714) >>> 


---------------------
RI-MP2 ENERGY+DENSITY
---------------------
Dimension of the basis                    ...  284
Memory devoted to MP2                     ... 2000 MB   
Data format for buffers                   ... DOUBLE
Compression type for matrix containers    ... UNCOMPRESSED
Overall scaling of the MP2 energy         ...   1.000e+00 Eh
Calculating two index integrals           ... done (    0.014 sec)
Cholesky decomposition of V**-1           ... done (    0.071 sec)

-----------------
RI-TRANSFORMATION (AUX index driven)
-----------------

Dimension of the orbital-basis         ... 284
Dimension of the aux-basis             ... 698
Transformation of internal MOs         ...    0-  28
Transformation of internal/external MOs...    0-  28 to   29- 283
Number Format for Storage              ... Double (8 Byte)
Integral mode                          ... Direct

First Phase: integral generation and transformation of MO indices
  Aux angular momentum 0               ... done (    0.441 sec)
  Aux angular momentum 1               ... done (    0.587 sec)
  Aux angular momentum 2               ... done (    0.676 sec)
  Aux angular momentum 3               ... done (    0.553 sec)
  Aux angular momentum 4               ... done (    0.256 sec)
Closing buffer VIJ ( 0.00 GB; CompressionRatio= 1.93)
Closing buffer VIA ( 0.04 GB; CompressionRatio= 1.00)
  Phase 1 completed in     2.611 sec
Second Phase: sorting and transformation of aux index

IJ-Transformation
Memory available                       ... 1991 MB 
Max. # MO pairs treated in a batch     ... 29    
# of internal orbitals                 ... 29
# batches for internal orbitals        ... 1
Closing buffer IJV ( 0.00 GB; CompressionRatio= 1.00)
(ij|v) transformation done in     0.107 sec

IA-Transformation
Memory available                       ... 1991 MB 
Max. # MO pairs treated in a batch     ... 29    
# of internal orbitals                 ... 29
# batches for internal orbitals        ... 1
Closing buffer IAV ( 0.04 GB; CompressionRatio= 1.00)
(ia|v) transformation done in     0.756 sec

  Phase 2 completed in     0.876 sec
RI-Integral transformation completed in     3.487 sec
Opening buffers                              ... done
Frozen core precalculation                   ... done

Starting loop over batches of integrals:

Operator 0  - window                       ... (  8- 28)x( 29-283)
Operator 0  - Memory available             ...  2000 MB
Operator 0  - Memory needed per MO         ...   2.7 MB
Operator 0  - Number of orbitals per batch ... 21
Operator 0  - Number of batches            ... 1

OPERATOR  0   PASS   0:  MOs     8 ...   28
  Reading integrals       ... ok
  Internal MO  10
  Internal MO  13
  Internal MO  16
  Internal MO  19
  Internal MO  22
  Internal MO  25
  Internal MO  28
Time spent in pair loops =    17.749 sec
Deleting buffer (Ka|jb)[aa] ...done

-----------------------------------------------
 RI-MP2 CORRELATION ENERGY:     -1.406716701 Eh
-----------------------------------------------


---------------------
MP2 DENSITY FORMATION
---------------------

Completing the external part of the density      ... done
Storing the unrelaxed density                    ... done

Calculating G(D)                                 ... done
Completing the Lagrangian                        ... done
Solving the Z-vector equations                   ... 

------------------------------------------------------------------------------
                           ORCA CP-SCF CALCULATION
------------------------------------------------------------------------------

Input orbitals are from        ... dsgdb9nsd_015218.gbw
Input Perturbation             ... dsgdb9nsd_015218.pin.tmp
Wavefunction output            ... dsgdb9nsd_015218.pout.tmp
Perturbation mode              ... Real perturbation
Solver                         ... POPLE
Max. number of iterations      ... 128
Convergence tolerance          ... 1.000e-08
Integral handling              ... Direct
Number of perturbations        ... 1
Number of operators            ... 1
Orbital ranges used for CP-SCF:
 Operator 0:  Orbitals   0... 28  to  29...283
Variables per vector in CP-SCF ... 7395
Number of vectors sought       ... 1
     CP-SCF ITERATION   0: 
     CP-SCF ITERATION   1:      0.002170409
     CP-SCF ITERATION   2:      0.000378847
     CP-SCF ITERATION   3:      0.000040500
     CP-SCF ITERATION   4:      0.000011243
     CP-SCF ITERATION   5:      0.000001960
     CP-SCF ITERATION   6:      0.000000410
     CP-SCF ITERATION   7:      0.000000067
     CP-SCF ITERATION   8:      0.000000009
done
Finalizing the relaxed density                   ... done
Transforming P to the AO basis                   ... done
Storing the relaxed density                      ... done

                *********************************************
                * UNRELAXED MP2 DENSITY POPULATION ANALYSIS *
                *********************************************

------------------------------------------------------------------------------
                           ORCA POPULATION ANALYSIS
------------------------------------------------------------------------------
Input electron density              ... dsgdb9nsd_015218.pmp2ur
BaseName (.gbw .S,...)              ... dsgdb9nsd_015218

                    ********************************
                    * MULLIKEN POPULATION ANALYSIS *
                    ********************************

-----------------------
MULLIKEN ATOMIC CHARGES
-----------------------
   0 C :   -0.260139
   1 N :   -0.240311
   2 C :    0.004091
   3 C :    0.197379
   4 O :   -0.368713
   5 C :    0.123662
   6 C :   -0.149772
   7 N :   -0.131079
   8 H :    0.171725
   9 H :    0.123953
  10 H :    0.130266
  11 H :    0.136275
  12 H :    0.106596
  13 H :    0.156067
Sum of atomic charges:    0.0000000

--------------------------------
MULLIKEN REDUCED ORBITAL CHARGES
--------------------------------
  0 C s       :     3.232401  s :     3.232401
      pz      :     1.077177  p :     2.897287
      px      :     1.060075
      py      :     0.760035
      dz2     :     0.022945  d :     0.120042
      dxz     :     0.014089
      dyz     :     0.027286
      dx2y2   :     0.026772
      dxy     :     0.028950
      f0      :     0.001918  f :     0.010409
      f+1     :     0.000731
      f-1     :     0.001367
      f+2     :     0.001249
      f-2     :     0.001011
      f+3     :     0.002179
      f-3     :     0.001952
  1 N s       :     3.536228  s :     3.536228
      pz      :     1.168405  p :     3.576611
      px      :     1.154475
      py      :     1.253730
      dz2     :     0.029593  d :     0.118893
      dxz     :     0.020121
      dyz     :     0.018119
      dx2y2   :     0.032607
      dxy     :     0.018454
      f0      :     0.001267  f :     0.008579
      f+1     :     0.001048
      f-1     :     0.001197
      f+2     :     0.001227
      f-2     :     0.000966
      f+3     :     0.001475
      f-3     :     0.001399
  2 C s       :     3.068885  s :     3.068885
      pz      :     0.807880  p :     2.762393
      px      :     0.970789
      py      :     0.983723
      dz2     :     0.026341  d :     0.148468
      dxz     :     0.037697
      dyz     :     0.039787
      dx2y2   :     0.026028
      dxy     :     0.018615
      f0      :     0.003091  f :     0.016163
      f+1     :     0.003014
      f-1     :     0.003249
      f+2     :     0.002484
      f-2     :     0.002080
      f+3     :     0.001270
      f-3     :     0.000974
  3 C s       :     3.187726  s :     3.187726
      pz      :     0.934583  p :     2.384988
      px      :     0.677461
      py      :     0.772943
      dz2     :     0.022569  d :     0.210138
      dxz     :     0.020020
      dyz     :     0.101122
      dx2y2   :     0.025960
      dxy     :     0.040466
      f0      :     0.003374  f :     0.019770
      f+1     :     0.001293
      f-1     :     0.003163
      f+2     :     0.003201
      f-2     :     0.002089
      f+3     :     0.003143
      f-3     :     0.003507
  4 O s       :     3.848471  s :     3.848471
      pz      :     1.822169  p :     4.452492
      px      :     1.300325
      py      :     1.329998
      dz2     :     0.009657  d :     0.062952
      dxz     :     0.006332
      dyz     :     0.013105
      dx2y2   :     0.016133
      dxy     :     0.017724
      f0      :     0.000642  f :     0.004798
      f+1     :     0.000461
      f-1     :     0.000779
      f+2     :     0.000611
      f-2     :     0.000485
      f+3     :     0.000892
      f-3     :     0.000930
  5 C s       :     3.024879  s :     3.024879
      pz      :     0.987929  p :     2.678890
      px      :     0.747560
      py      :     0.943401
      dz2     :     0.026939  d :     0.156822
      dxz     :     0.037471
      dyz     :     0.021551
      dx2y2   :     0.030953
      dxy     :     0.039909
      f0      :     0.002279  f :     0.015747
      f+1     :     0.002303
      f-1     :     0.001201
      f+2     :     0.002462
      f-2     :     0.001810
      f+3     :     0.002920
      f-3     :     0.002773
  6 C s       :     3.216317  s :     3.216317
      pz      :     0.901230  p :     2.784933
      px      :     0.966429
      py      :     0.917273
      dz2     :     0.013060  d :     0.127738
      dxz     :     0.026557
      dyz     :     0.020801
      dx2y2   :     0.037826
      dxy     :     0.029494
      f0      :     0.002822  f :     0.020785
      f+1     :     0.001622
      f-1     :     0.001327
      f+2     :     0.000759
      f-2     :     0.004417
      f+3     :     0.005839
      f-3     :     0.003999
  7 N s       :     3.693086  s :     3.693086
      pz      :     1.053226  p :     3.355124
      px      :     1.175279
      py      :     1.126619
      dz2     :     0.007658  d :     0.077179
      dxz     :     0.017144
      dyz     :     0.013552
      dx2y2   :     0.025707
      dxy     :     0.013118
      f0      :     0.000778  f :     0.005689
      f+1     :     0.000551
      f-1     :     0.000494
      f+2     :     0.000453
      f-2     :     0.001079
      f+3     :     0.001362
      f-3     :     0.000973
  8 H s       :     0.803074  s :     0.803074
      pz      :     0.007948  p :     0.025201
      px      :     0.008518
      py      :     0.008735
  9 H s       :     0.851211  s :     0.851211
      pz      :     0.005825  p :     0.024836
      px      :     0.014850
      py      :     0.004161
 10 H s       :     0.844908  s :     0.844908
      pz      :     0.015412  p :     0.024825
      px      :     0.004755
      py      :     0.004658
 11 H s       :     0.836961  s :     0.836961
      pz      :     0.004640  p :     0.026764
      px      :     0.006576
      py      :     0.015549
 12 H s       :     0.869445  s :     0.869445
      pz      :     0.014151  p :     0.023959
      px      :     0.003492
      py      :     0.006316
 13 H s       :     0.817103  s :     0.817103
      pz      :     0.008447  p :     0.026830
      px      :     0.004519
      py      :     0.013864


                     *******************************
                     * LOEWDIN POPULATION ANALYSIS *
                     *******************************

----------------------
LOEWDIN ATOMIC CHARGES
----------------------
   0 C :   -0.278082
   1 N :    0.125457
   2 C :   -0.198228
   3 C :   -0.237638
   4 O :    0.103827
   5 C :   -0.196483
   6 C :   -0.159998
   7 N :    0.061018
   8 H :    0.118781
   9 H :    0.115037
  10 H :    0.116816
  11 H :    0.145847
  12 H :    0.121822
  13 H :    0.161826

-------------------------------
LOEWDIN REDUCED ORBITAL CHARGES
-------------------------------
  0 C s       :     2.836319  s :     2.836319
      pz      :     1.073446  p :     3.026226
      px      :     1.057243
      py      :     0.895536
      dz2     :     0.073076  d :     0.370466
      dxz     :     0.027439
      dyz     :     0.080766
      dx2y2   :     0.106932
      dxy     :     0.082254
      f0      :     0.006632  f :     0.045071
      f+1     :     0.001726
      f-1     :     0.005961
      f+2     :     0.006154
      f-2     :     0.005234
      f+3     :     0.009283
      f-3     :     0.010081
  1 N s       :     2.991504  s :     2.991504
      pz      :     1.144294  p :     3.561182
      px      :     1.167841
      py      :     1.249047
      dz2     :     0.057872  d :     0.296763
      dxz     :     0.054136
      dyz     :     0.054483
      dx2y2   :     0.070856
      dxy     :     0.059417
      f0      :     0.004862  f :     0.025093
      f+1     :     0.002825
      f-1     :     0.002859
      f+2     :     0.003821
      f-2     :     0.002416
      f+3     :     0.004134
      f-3     :     0.004177
  2 C s       :     2.735795  s :     2.735795
      pz      :     0.924304  p :     2.847327
      px      :     0.947946
      py      :     0.975077
      dz2     :     0.155690  d :     0.543578
      dxz     :     0.123159
      dyz     :     0.130448
      dx2y2   :     0.076842
      dxy     :     0.057439
      f0      :     0.016343  f :     0.071528
      f+1     :     0.013834
      f-1     :     0.012870
      f+2     :     0.011304
      f-2     :     0.010313
      f+3     :     0.004119
      f-3     :     0.002744
  3 C s       :     2.816811  s :     2.816811
      pz      :     0.992926  p :     2.639863
      px      :     0.681402
      py      :     0.965535
      dz2     :     0.088888  d :     0.677448
      dxz     :     0.059285
      dyz     :     0.300291
      dx2y2   :     0.113250
      dxy     :     0.115734
      f0      :     0.021782  f :     0.103517
      f+1     :     0.006063
      f-1     :     0.013100
      f+2     :     0.018137
      f-2     :     0.010222
      f+3     :     0.016786
      f-3     :     0.017427
  4 O s       :     3.401861  s :     3.401861
      pz      :     1.660051  p :     4.383984
      px      :     1.245768
      py      :     1.478164
      dz2     :     0.015082  d :     0.101178
      dxz     :     0.007678
      dyz     :     0.027304
      dx2y2   :     0.027634
      dxy     :     0.023480
      f0      :     0.001250  f :     0.009150
      f+1     :     0.000542
      f-1     :     0.001530
      f+2     :     0.001406
      f-2     :     0.000837
      f+3     :     0.001847
      f-3     :     0.001738
  5 C s       :     2.713448  s :     2.713448
      pz      :     0.955482  p :     2.823884
      px      :     0.890024
      py      :     0.978377
      dz2     :     0.081625  d :     0.582737
      dxz     :     0.126793
      dyz     :     0.081915
      dx2y2   :     0.147606
      dxy     :     0.144797
      f0      :     0.011798  f :     0.076415
      f+1     :     0.009690
      f-1     :     0.004287
      f+2     :     0.012752
      f-2     :     0.008578
      f+3     :     0.016504
      f-3     :     0.012806
  6 C s       :     2.816568  s :     2.816568
      pz      :     0.830065  p :     2.823548
      px      :     1.019881
      py      :     0.973602
      dz2     :     0.046704  d :     0.452067
      dxz     :     0.085780
      dyz     :     0.064621
      dx2y2   :     0.128780
      dxy     :     0.126182
      f0      :     0.007671  f :     0.067816
      f+1     :     0.006670
      f-1     :     0.005150
      f+2     :     0.001341
      f-2     :     0.012368
      f+3     :     0.017982
      f-3     :     0.016634
  7 N s       :     3.297238  s :     3.297238
      pz      :     1.009444  p :     3.478026
      px      :     1.279464
      py      :     1.189119
      dz2     :     0.016882  d :     0.143948
      dxz     :     0.025884
      dyz     :     0.019572
      dx2y2   :     0.041158
      dxy     :     0.040452
      f0      :     0.002148  f :     0.019770
      f+1     :     0.002125
      f-1     :     0.001638
      f+2     :     0.000610
      f-2     :     0.003334
      f+3     :     0.004987
      f-3     :     0.004927
  8 H s       :     0.810496  s :     0.810496
      pz      :     0.022738  p :     0.070724
      px      :     0.024549
      py      :     0.023437
  9 H s       :     0.820084  s :     0.820084
      pz      :     0.016533  p :     0.064879
      px      :     0.037606
      py      :     0.010740
 10 H s       :     0.818225  s :     0.818225
      pz      :     0.039615  p :     0.064959
      px      :     0.013635
      py      :     0.011709
 11 H s       :     0.789719  s :     0.789719
      pz      :     0.010597  p :     0.064435
      px      :     0.017141
      py      :     0.036696
 12 H s       :     0.818924  s :     0.818924
      pz      :     0.034942  p :     0.059254
      px      :     0.008489
      py      :     0.015823
 13 H s       :     0.773830  s :     0.773830
      pz      :     0.020960  p :     0.064344
      px      :     0.010632
      py      :     0.032752


                      *****************************
                      * MAYER POPULATION ANALYSIS *
                      *****************************

  NA   - Mulliken gross atomic population
  ZA   - Total nuclear charge
  QA   - Mulliken gross atomic charge
  VA   - Mayer's total valence
  BVA  - Mayer's bonded valence
  FA   - Mayer's free valence

  ATOM       NA         ZA         QA         VA         BVA        FA
  0 C      6.2601     6.0000    -0.2601     3.9873     3.6905     0.2968
  1 N      7.2403     7.0000    -0.2403     3.0537     2.6163     0.4374
  2 C      5.9959     6.0000     0.0041     3.9253     3.5709     0.3544
  3 C      5.8026     6.0000     0.1974     4.0356     3.6908     0.3447
  4 O      8.3687     8.0000    -0.3687     2.2944     1.8357     0.4587
  5 C      5.8763     6.0000     0.1237     4.0350     3.6910     0.3440
  6 C      6.1498     6.0000    -0.1498     4.1013     3.6543     0.4470
  7 N      7.1311     7.0000    -0.1311     3.2210     2.7348     0.4861
  8 H      0.8283     1.0000     0.1717     0.9647     0.9158     0.0489
  9 H      0.8760     1.0000     0.1240     0.9783     0.9300     0.0483
 10 H      0.8697     1.0000     0.1303     0.9757     0.9276     0.0481
 11 H      0.8637     1.0000     0.1363     0.9653     0.9164     0.0489
 12 H      0.8934     1.0000     0.1066     0.9796     0.9284     0.0511
 13 H      0.8439     1.0000     0.1561     0.9646     0.9163     0.0483

  Mayer bond orders larger than 0.1
B(  0-C ,  1-N ) :   0.8302 B(  0-C ,  8-H ) :   0.9323 B(  0-C ,  9-H ) :   0.9451 
B(  0-C , 10-H ) :   0.9417 B(  1-N ,  2-C ) :   0.8824 B(  1-N ,  5-C ) :   0.9042 
B(  2-C ,  3-C ) :   0.8878 B(  2-C ,  5-C ) :   0.8862 B(  2-C , 11-H ) :   0.9222 
B(  3-C ,  4-O ) :   1.8144 B(  3-C , 12-H ) :   0.9614 B(  5-C ,  6-C ) :   0.9188 
B(  5-C , 13-H ) :   0.9158 B(  6-C ,  7-N ) :   2.7233 


                *******************************************
                * RELAXED MP2 DENSITY POPULATION ANALYSIS *
                *******************************************

------------------------------------------------------------------------------
                           ORCA POPULATION ANALYSIS
------------------------------------------------------------------------------
Input electron density              ... dsgdb9nsd_015218.pmp2re
BaseName (.gbw .S,...)              ... dsgdb9nsd_015218

                    ********************************
                    * MULLIKEN POPULATION ANALYSIS *
                    ********************************

-----------------------
MULLIKEN ATOMIC CHARGES
-----------------------
   0 C :   -0.324438
   1 N :   -0.184668
   2 C :   -0.039599
   3 C :    0.107369
   4 O :   -0.260350
   5 C :    0.035922
   6 C :   -0.178539
   7 N :   -0.038133
   8 H :    0.174709
   9 H :    0.145702
  10 H :    0.151026
  11 H :    0.144542
  12 H :    0.100559
  13 H :    0.165899
Sum of atomic charges:    0.0000000

--------------------------------
MULLIKEN REDUCED ORBITAL CHARGES
--------------------------------
  0 C s       :     3.250291  s :     3.250291
      pz      :     1.098109  p :     2.956242
      px      :     1.079169
      py      :     0.778964
      dz2     :     0.018979  d :     0.108056
      dxz     :     0.012447
      dyz     :     0.026024
      dx2y2   :     0.024452
      dxy     :     0.026155
      f0      :     0.001794  f :     0.009848
      f+1     :     0.000721
      f-1     :     0.001292
      f+2     :     0.001212
      f-2     :     0.000945
      f+3     :     0.002012
      f-3     :     0.001873
  1 N s       :     3.526181  s :     3.526181
      pz      :     1.163074  p :     3.535680
      px      :     1.151568
      py      :     1.221038
      dz2     :     0.026138  d :     0.114420
      dxz     :     0.020692
      dyz     :     0.018834
      dx2y2   :     0.029020
      dxy     :     0.019735
      f0      :     0.001250  f :     0.008387
      f+1     :     0.000994
      f-1     :     0.001131
      f+2     :     0.001244
      f-2     :     0.000955
      f+3     :     0.001455
      f-3     :     0.001359
  2 C s       :     3.102644  s :     3.102644
      pz      :     0.804717  p :     2.781361
      px      :     0.971947
      py      :     1.004698
      dz2     :     0.028408  d :     0.140137
      dxz     :     0.035947
      dyz     :     0.034074
      dx2y2   :     0.023778
      dxy     :     0.017930
      f0      :     0.003114  f :     0.015456
      f+1     :     0.002954
      f-1     :     0.002977
      f+2     :     0.002268
      f-2     :     0.002004
      f+3     :     0.001185
      f-3     :     0.000954
  3 C s       :     3.202433  s :     3.202433
      pz      :     0.952087  p :     2.474347
      px      :     0.743591
      py      :     0.778669
      dz2     :     0.021558  d :     0.197498
      dxz     :     0.020107
      dyz     :     0.097144
      dx2y2   :     0.024661
      dxy     :     0.034027
      f0      :     0.003210  f :     0.018353
      f+1     :     0.001230
      f-1     :     0.002852
      f+2     :     0.003007
      f-2     :     0.001988
      f+3     :     0.002919
      f-3     :     0.003146
  4 O s       :     3.833310  s :     3.833310
      pz      :     1.774943  p :     4.362661
      px      :     1.260136
      py      :     1.327581
      dz2     :     0.008871  d :     0.059732
      dxz     :     0.006422
      dyz     :     0.013765
      dx2y2   :     0.014663
      dxy     :     0.016011
      f0      :     0.000656  f :     0.004647
      f+1     :     0.000462
      f-1     :     0.000736
      f+2     :     0.000617
      f-2     :     0.000488
      f+3     :     0.000824
      f-3     :     0.000864
  5 C s       :     3.078528  s :     3.078528
      pz      :     0.985348  p :     2.720560
      px      :     0.757757
      py      :     0.977455
      dz2     :     0.023048  d :     0.149817
      dxz     :     0.037806
      dyz     :     0.020712
      dx2y2   :     0.033022
      dxy     :     0.035229
      f0      :     0.002209  f :     0.015173
      f+1     :     0.002164
      f-1     :     0.001132
      f+2     :     0.002354
      f-2     :     0.001839
      f+3     :     0.002893
      f-3     :     0.002582
  6 C s       :     3.194458  s :     3.194458
      pz      :     0.923812  p :     2.860319
      px      :     0.989502
      py      :     0.947004
      dz2     :     0.012075  d :     0.104103
      dxz     :     0.020581
      dyz     :     0.017153
      dx2y2   :     0.028364
      dxy     :     0.025930
      f0      :     0.002654  f :     0.019659
      f+1     :     0.001570
      f-1     :     0.001277
      f+2     :     0.000739
      f-2     :     0.004115
      f+3     :     0.005474
      f-3     :     0.003830
  7 N s       :     3.623102  s :     3.623102
      pz      :     1.044745  p :     3.341811
      px      :     1.170833
      py      :     1.126233
      dz2     :     0.007403  d :     0.068046
      dxz     :     0.014823
      dyz     :     0.011860
      dx2y2   :     0.021608
      dxy     :     0.012352
      f0      :     0.000704  f :     0.005175
      f+1     :     0.000517
      f-1     :     0.000466
      f+2     :     0.000446
      f-2     :     0.000965
      f+3     :     0.001200
      f-3     :     0.000877
  8 H s       :     0.801131  s :     0.801131
      pz      :     0.007706  p :     0.024160
      px      :     0.008162
      py      :     0.008293
  9 H s       :     0.830553  s :     0.830553
      pz      :     0.005901  p :     0.023746
      px      :     0.013479
      py      :     0.004365
 10 H s       :     0.825237  s :     0.825237
      pz      :     0.013927  p :     0.023737
      px      :     0.005012
      py      :     0.004799
 11 H s       :     0.830005  s :     0.830005
      pz      :     0.004766  p :     0.025454
      px      :     0.006538
      py      :     0.014150
 12 H s       :     0.876783  s :     0.876783
      pz      :     0.012711  p :     0.022658
      px      :     0.003756
      py      :     0.006191
 13 H s       :     0.808643  s :     0.808643
      pz      :     0.008164  p :     0.025459
      px      :     0.004671
      py      :     0.012624


                     *******************************
                     * LOEWDIN POPULATION ANALYSIS *
                     *******************************

----------------------
LOEWDIN ATOMIC CHARGES
----------------------
   0 C :   -0.305511
   1 N :    0.143488
   2 C :   -0.218889
   3 C :   -0.284573
   4 O :    0.156688
   5 C :   -0.215952
   6 C :   -0.175985
   7 N :    0.086034
   8 H :    0.122363
   9 H :    0.124358
  10 H :    0.126021
  11 H :    0.152777
  12 H :    0.120799
  13 H :    0.168383

-------------------------------
LOEWDIN REDUCED ORBITAL CHARGES
-------------------------------
  0 C s       :     2.843246  s :     2.843246
      pz      :     1.086876  p :     3.062888
      px      :     1.070488
      py      :     0.905524
      dz2     :     0.068015  d :     0.355472
      dxz     :     0.025429
      dyz     :     0.079363
      dx2y2   :     0.102936
      dxy     :     0.079730
      f0      :     0.006407  f :     0.043905
      f+1     :     0.001695
      f-1     :     0.005814
      f+2     :     0.006024
      f-2     :     0.005154
      f+3     :     0.008956
      f-3     :     0.009854
  1 N s       :     2.998011  s :     2.998011
      pz      :     1.140885  p :     3.536994
      px      :     1.161627
      py      :     1.234482
      dz2     :     0.055907  d :     0.296411
      dxz     :     0.054198
      dyz     :     0.055582
      dx2y2   :     0.069661
      dxy     :     0.061062
      f0      :     0.004784  f :     0.025097
      f+1     :     0.002812
      f-1     :     0.002868
      f+2     :     0.003818
      f-2     :     0.002373
      f+3     :     0.004241
      f-3     :     0.004201
  2 C s       :     2.746324  s :     2.746324
      pz      :     0.926804  p :     2.859365
      px      :     0.948965
      py      :     0.983597
      dz2     :     0.155824  d :     0.542710
      dxz     :     0.126228
      dyz     :     0.128115
      dx2y2   :     0.075243
      dxy     :     0.057301
      f0      :     0.015971  f :     0.070489
      f+1     :     0.013963
      f-1     :     0.012412
      f+2     :     0.010850
      f-2     :     0.010490
      f+3     :     0.004049
      f-3     :     0.002754
  3 C s       :     2.823156  s :     2.823156
      pz      :     0.997244  p :     2.693060
      px      :     0.732733
      py      :     0.963084
      dz2     :     0.088151  d :     0.669636
      dxz     :     0.059201
      dyz     :     0.303908
      dx2y2   :     0.110663
      dxy     :     0.107713
      f0      :     0.020979  f :     0.098720
      f+1     :     0.005922
      f-1     :     0.012823
      f+2     :     0.016423
      f-2     :     0.009417
      f+3     :     0.016430
      f-3     :     0.016727
  4 O s       :     3.404187  s :     3.404187
      pz      :     1.632787  p :     4.328486
      px      :     1.217839
      py      :     1.477859
      dz2     :     0.014477  d :     0.101344
      dxz     :     0.007787
      dyz     :     0.028207
      dx2y2   :     0.027390
      dxy     :     0.023483
      f0      :     0.001262  f :     0.009295
      f+1     :     0.000556
      f-1     :     0.001519
      f+2     :     0.001415
      f-2     :     0.000840
      f+3     :     0.001894
      f-3     :     0.001808
  5 C s       :     2.722355  s :     2.722355
      pz      :     0.955794  p :     2.835333
      px      :     0.891529
      py      :     0.988011
      dz2     :     0.079033  d :     0.582821
      dxz     :     0.128857
      dyz     :     0.081762
      dx2y2   :     0.151877
      dxy     :     0.141292
      f0      :     0.011509  f :     0.075443
      f+1     :     0.009911
      f-1     :     0.004151
      f+2     :     0.012290
      f-2     :     0.008845
      f+3     :     0.016135
      f-3     :     0.012602
  6 C s       :     2.823686  s :     2.823686
      pz      :     0.850968  p :     2.847699
      px      :     1.018564
      py      :     0.978167
      dz2     :     0.047380  d :     0.436437
      dxz     :     0.079413
      dyz     :     0.061072
      dx2y2   :     0.120644
      dxy     :     0.127927
      f0      :     0.007480  f :     0.068163
      f+1     :     0.006891
      f-1     :     0.005298
      f+2     :     0.001329
      f-2     :     0.012030
      f+3     :     0.018008
      f-3     :     0.017128
  7 N s       :     3.297819  s :     3.297819
      pz      :     1.001305  p :     3.456837
      px      :     1.271914
      py      :     1.183618
      dz2     :     0.017078  d :     0.139238
      dxz     :     0.024599
      dyz     :     0.018580
      dx2y2   :     0.037976
      dxy     :     0.041006
      f0      :     0.002199  f :     0.020073
      f+1     :     0.002154
      f-1     :     0.001658
      f+2     :     0.000615
      f-2     :     0.003421
      f+3     :     0.005036
      f-3     :     0.004989
  8 H s       :     0.806156  s :     0.806156
      pz      :     0.023007  p :     0.071481
      px      :     0.024718
      py      :     0.023755
  9 H s       :     0.809867  s :     0.809867
      pz      :     0.017020  p :     0.065775
      px      :     0.037426
      py      :     0.011329
 10 H s       :     0.808184  s :     0.808184
      pz      :     0.039324  p :     0.065795
      px      :     0.014208
      py      :     0.012264
 11 H s       :     0.782164  s :     0.782164
      pz      :     0.011241  p :     0.065059
      px      :     0.017468
      py      :     0.036350
 12 H s       :     0.818847  s :     0.818847
      pz      :     0.034147  p :     0.060354
      px      :     0.009530
      py      :     0.016678
 13 H s       :     0.767024  s :     0.767024
      pz      :     0.021132  p :     0.064593
      px      :     0.011251
      py      :     0.032210


                      *****************************
                      * MAYER POPULATION ANALYSIS *
                      *****************************

  NA   - Mulliken gross atomic population
  ZA   - Total nuclear charge
  QA   - Mulliken gross atomic charge
  VA   - Mayer's total valence
  BVA  - Mayer's bonded valence
  FA   - Mayer's free valence

  ATOM       NA         ZA         QA         VA         BVA        FA
  0 C      6.3244     6.0000    -0.3244     3.9744     3.6805     0.2940
  1 N      7.1847     7.0000    -0.1847     3.1612     2.7356     0.4255
  2 C      6.0396     6.0000    -0.0396     3.9147     3.5666     0.3481
  3 C      5.8926     6.0000     0.1074     4.1381     3.8071     0.3310
  4 O      8.2603     8.0000    -0.2603     2.4251     1.9824     0.4427
  5 C      5.9641     6.0000     0.0359     4.0927     3.7546     0.3381
  6 C      6.1785     6.0000    -0.1785     4.2361     3.8028     0.4333
  7 N      7.0381     7.0000    -0.0381     3.3400     2.8657     0.4743
  8 H      0.8253     1.0000     0.1747     0.9702     0.9227     0.0475
  9 H      0.8543     1.0000     0.1457     0.9709     0.9235     0.0474
 10 H      0.8490     1.0000     0.1510     0.9683     0.9211     0.0471
 11 H      0.8555     1.0000     0.1445     0.9616     0.9140     0.0476
 12 H      0.8994     1.0000     0.1006     0.9710     0.9220     0.0489
 13 H      0.8341     1.0000     0.1659     0.9575     0.9102     0.0473

  Mayer bond orders larger than 0.1
B(  0-C ,  1-N ) :   0.8621 B(  0-C ,  8-H ) :   0.9184 B(  0-C ,  9-H ) :   0.9333 
B(  0-C , 10-H ) :   0.9292 B(  1-N ,  2-C ) :   0.9067 B(  1-N ,  5-C ) :   0.9323 
B(  2-C ,  3-C ) :   0.9061 B(  2-C ,  5-C ) :   0.8588 B(  2-C , 11-H ) :   0.9048 
B(  3-C ,  4-O ) :   1.9226 B(  3-C , 12-H ) :   0.9380 B(  5-C ,  6-C ) :   0.9618 
B(  5-C , 13-H ) :   0.9031 B(  6-C ,  7-N ) :   2.8210 


-------
TIMINGS
-------

Total time                :  564.166 sec
Integral trafo            :    3.495 sec (  0.6%)
FC preparation            :    1.657 sec (  0.3%)
I/O of integrals          :    0.031 sec (  0.0%)
K(i,j) Operators          :    3.936 sec (  0.7%)
T(i,j) pair energies      :    0.402 sec (  0.1%)
V-calculation             :    0.014 sec (  0.0%)
V**(-1/2)                 :    0.071 sec (  0.0%)
Gamma(ia|P)               :    3.798 sec (  0.7%)
Gamma-Trafo               :    0.753 sec (  0.1%)
D(virtual)                :    1.453 sec (  0.3%)
D(internal)               :    1.293 sec (  0.2%)
W(virtual)                :    0.000 sec (  0.0%)
W(internal)               :    0.000 sec (  0.0%)
L(virtual)                :    5.817 sec (  1.0%)
L(internal)               :    0.115 sec (  0.0%)
G(D)                      :   60.607 sec ( 10.7%)
G(Z)                      :    0.000 sec (  0.0%)
Z-Vector Solution         :  480.294 sec ( 85.1%)
3-Index Derivative        :    0.000 sec (  0.0%)
2-Index Derivative        :    0.000 sec (  0.0%)
Separable Gradient (RIJ)  :    0.000 sec (  0.0%)
Separable Gradient (X)    :    0.000 sec (  0.0%)


---------------------------------------
MP2 TOTAL ENERGY:     -378.059165525 Eh
---------------------------------------

-------------------------   --------------------
FINAL SINGLE POINT ENERGY      -378.059165524694
-------------------------   --------------------


                            ***************************************
                            *     ORCA property calculations      *
                            ***************************************

                                    ---------------------
                                    Active property flags
                                    ---------------------
   (+) Dipole Moment


------------------------------------------------------------------------------
                       ORCA ELECTRIC PROPERTIES CALCULATION
------------------------------------------------------------------------------

Dipole Moment Calculation                       ... on
Quadrupole Moment Calculation                   ... off
Polarizability Calculation                      ... off
GBWName                                         ... dsgdb9nsd_015218.gbw
Electron density file                           ... dsgdb9nsd_015218.scfp.tmp

-------------
DIPOLE MOMENT
-------------
                                X             Y             Z
Electronic contribution:      4.10692      -0.53827      -1.07655
Nuclear contribution   :     -5.38505      -0.96264       0.87058
                        -----------------------------------------
Total Dipole Moment    :     -1.27813      -1.50091      -0.20597
                        -----------------------------------------
Magnitude (a.u.)       :      1.98211
Magnitude (Debye)      :      5.03813


                         *** MP2 UNRELAXED DENSITY ***

------------------------------------------------------------------------------
                       ORCA ELECTRIC PROPERTIES CALCULATION
------------------------------------------------------------------------------

Dipole Moment Calculation                       ... on
Quadrupole Moment Calculation                   ... off
Polarizability Calculation                      ... off
GBWName                                         ... dsgdb9nsd_015218.gbw
Electron density file                           ... dsgdb9nsd_015218.pmp2ur

-------------
DIPOLE MOMENT
-------------
                                X             Y             Z
Electronic contribution:      4.13539      -0.46925      -1.06238
Nuclear contribution   :     -5.38505      -0.96264       0.87058
                        -----------------------------------------
Total Dipole Moment    :     -1.24966      -1.43189      -0.19180
                        -----------------------------------------
Magnitude (a.u.)       :      1.91017
Magnitude (Debye)      :      4.85527


                           *** MP2 RELAXED DENSITY ***

------------------------------------------------------------------------------
                       ORCA ELECTRIC PROPERTIES CALCULATION
------------------------------------------------------------------------------

Dipole Moment Calculation                       ... on
Quadrupole Moment Calculation                   ... off
Polarizability Calculation                      ... off
GBWName                                         ... dsgdb9nsd_015218.gbw
Electron density file                           ... dsgdb9nsd_015218.pmp2re

-------------
DIPOLE MOMENT
-------------
                                X             Y             Z
Electronic contribution:      4.24292      -0.28866      -1.00450
Nuclear contribution   :     -5.38505      -0.96264       0.87058
                        -----------------------------------------
Total Dipole Moment    :     -1.14213      -1.25130      -0.13392
                        -----------------------------------------
Magnitude (a.u.)       :      1.69945
Magnitude (Debye)      :      4.31967


Timings for individual modules:

Sum of individual times         ...      659.795 sec (=  10.997 min)
GTO integral calculation        ...        0.392 sec (=   0.007 min)   0.1 %
SCF iterations                  ...       95.104 sec (=   1.585 min)  14.4 %
MP2 module                      ...      564.299 sec (=   9.405 min)  85.5 %
                             ****ORCA TERMINATED NORMALLY****
TOTAL RUN TIME: 0 days 0 hours 11 minutes 0 seconds 234 msec
