
                                 *****************
                                 * O   R   C   A *
                                 *****************

           --- An Ab Initio, DFT and Semiempirical electronic structure package ---

                  #######################################################
                  #                        -***-                        #
                  #  Department of molecular theory and spectroscopy    #
                  #              Directorship: Frank Neese              #
                  # Max Planck Institute for Chemical Energy Conversion #
                  #                  D-45470 Muelheim/Ruhr              #
                  #                       Germany                       #
                  #                                                     #
                  #                  All rights reserved                #
                  #                        -***-                        #
                  #######################################################


                         Program Version 3.0.3 - RELEASE   -


 With contributions from (in alphabetic order):
   Ute Becker             : Parallelization
   Dmytro Bykov           : SCF Hessian
   Dmitry Ganyushin       : Spin-Orbit,Spin-Spin,Magnetic field MRCI
   Andreas Hansen         : Spin unrestricted coupled pair/coupled cluster methods
   Dimitrios Liakos       : Extrapolation schemes; parallel MDCI
   Robert Izsak           : Overlap fitted RIJCOSX, COSX-SCS-MP3
   Christian Kollmar      : KDIIS, OOCD, Brueckner-CCSD(T), CCSD density
   Simone Kossmann        : Meta GGA functionals, TD-DFT gradient, OOMP2, MP2 Hessian
   Taras Petrenko         : DFT Hessian,TD-DFT gradient, ASA and ECA modules, normal mode analysis, Resonance Raman, ABS, FL, XAS/XES, NRVS
   Christoph Reimann      : Effective Core Potentials
   Michael Roemelt        : Restricted open shell CIS
   Christoph Riplinger    : Improved optimizer, TS searches, QM/MM, DLPNO-CCSD
   Barbara Sandhoefer     : DKH picture change effects
   Igor Schapiro          : Molecular dynamics
   Kantharuban Sivalingam : CASSCF convergence, NEVPT2
   Boris Wezisla          : Elementary symmetry handling
   Frank Wennmohs         : Technical directorship


 We gratefully acknowledge several colleagues who have allowed us to
 interface, adapt or use parts of their codes:
   Stefan Grimme, W. Hujo, H. Kruse, T. Risthaus : VdW corrections, initial TS optimization,
                                                   DFT functionals, gCP
   Ed Valeev                                     : LibInt (2-el integral package), F12 methods
   Garnet Chan, S. Sharma, R. Olivares           : DMRG
   Ulf Ekstrom                                   : XCFun DFT Library
   Mihaly Kallay                                 : mrcc  (arbitrary order and MRCC methods)
   Andreas Klamt, Michael Diedenhofen            : otool_cosmo (COSMO solvation model)
   Frank Weinhold                                : gennbo (NPA and NBO analysis)
   Christopher J. Cramer and Donald G. Truhlar   : smd solvation model


 Your calculation uses the libint2 library for the computation of 2-el integrals
 For citations please refer to: http://libint.valeyev.net

 This ORCA versions uses:
   CBLAS   interface :  Fast vector & matrix operations
   LAPACKE interface :  Fast linear algebra routines
   SCALAPACK package :  Parallel linear algebra routines


Your calculation utilizes the basis: Ahlrichs-TZV
Cite in your paper:
H - Kr: A. Schaefer, H. Horn and R. Ahlrichs, J. Chem. Phys. 97, 2571 (1992).

The def2-TZV basis will be loaded
Cite in your paper:
 	F. Weigend, R. Ahlrichs, Phys. Chem. Chem. Phys. 2005, 7, 3297.

================================================================================
                                        WARNINGS
                       Please study these warnings very carefully!
================================================================================
Now building the actual basis set


INFO   : the flag for use of LIBINT has been found!

================================================================================
                                       INPUT FILE
================================================================================
NAME = dsgdb9nsd_100314.inp
|  1> ! RI-MP2 RIJK def2-TZVP def2-TZVP/C def2-TZVP/JK TIGHTSCF
|  2> % maxcore 2000
|  3> % mp2 density relaxed end
|  4> *xyz 0 1
|  5>  C        0.8520536593     1.4278361293     0.5778210278 
|  6>  C        0.9816091694    -0.0674466161     0.2679463180 
|  7>  C        0.8065840309    -0.4485539533    -1.2191494042 
|  8>  C       -0.5522760289     0.0076487191    -1.7704070824 
|  9>  O        1.7619224551     0.1829424390    -2.0740555051 
| 10>  C        3.1298364415     0.2009891731    -1.6860448645 
| 11>  C        0.8537726253    -1.9735470985    -1.3503042514 
| 12>  C        1.3945626973    -2.6530748060    -2.5298515527 
| 13>  O        2.1181857816    -2.6366017768    -1.2899096763 
| 14>  H        1.5036915935     2.0279656222    -0.0632711638 
| 15>  H       -0.1714858550     1.7851287165     0.4321425458 
| 16>  H        1.1234483183     1.6276853988     1.6188246800 
| 17>  H        1.9544134830    -0.4384848687     0.6085886917 
| 18>  H        0.2351904830    -0.6266186984     0.8452950435 
| 19>  H       -0.6337072640     1.0953523027    -1.7313845727 
| 20>  H       -0.6524355052    -0.3007554860    -2.8144672447 
| 21>  H       -1.3773063600    -0.4267238606    -1.1973703118 
| 22>  H        3.5087437888    -0.7963060187    -1.4512351051 
| 23>  H        3.6742823735     0.6026585126    -2.5451781859 
| 24>  H        3.3088444558     0.8654719732    -0.8302696330 
| 25>  H        0.0682602907    -2.4825980371    -0.7867654244 
| 26>  H        1.0038951929    -3.6261421090    -2.8229055711 
| 27>  H        1.8299510633    -2.0530235174    -3.3245373980 
| 28> *
| 29> 
| 30>                          ****END OF INPUT****
================================================================================

                       ****************************
                       * Single Point Calculation *
                       ****************************

---------------------------------
CARTESIAN COORDINATES (ANGSTROEM)
---------------------------------
  C      0.852054    1.427836    0.577821
  C      0.981609   -0.067447    0.267946
  C      0.806584   -0.448554   -1.219149
  C     -0.552276    0.007649   -1.770407
  O      1.761922    0.182942   -2.074056
  C      3.129836    0.200989   -1.686045
  C      0.853773   -1.973547   -1.350304
  C      1.394563   -2.653075   -2.529852
  O      2.118186   -2.636602   -1.289910
  H      1.503692    2.027966   -0.063271
  H     -0.171486    1.785129    0.432143
  H      1.123448    1.627685    1.618825
  H      1.954413   -0.438485    0.608589
  H      0.235190   -0.626619    0.845295
  H     -0.633707    1.095352   -1.731385
  H     -0.652436   -0.300755   -2.814467
  H     -1.377306   -0.426724   -1.197370
  H      3.508744   -0.796306   -1.451235
  H      3.674282    0.602659   -2.545178
  H      3.308844    0.865472   -0.830270
  H      0.068260   -2.482598   -0.786765
  H      1.003895   -3.626142   -2.822906
  H      1.829951   -2.053024   -3.324537

----------------------------
CARTESIAN COORDINATES (A.U.)
----------------------------
  NO LB      ZA    FRAG    MASS        X           Y           Z
   0 C     6.0000    0    12.011          1.610148067482444          2.698219248495173          1.091923496962898
   1 C     6.0000    0    12.011          1.854972500711913         -0.127455633088724          0.506345159612574
   2 C     6.0000    0    12.011          1.524222922395276         -0.847644128024703         -2.303858490271263
   3 C     6.0000    0    12.011         -1.043650444950579          0.014453984374293         -3.345584531290555
   4 O     8.0000    0    15.999          3.329550909345163          0.345711107981594         -3.919396891190712
   5 C     6.0000    0    12.011          5.914533718401643          0.379814493042292         -3.186163043409366
   6 C     6.0000    0    12.011          1.613396442455966         -3.729463528559909         -2.551705232615552
   7 C     6.0000    0    12.011          2.635341574479522         -5.013584796146255         -4.780726594078446
   8 O     8.0000    0    15.999          4.002791027989932         -4.982455282362167         -2.437576025702012
   9 H     1.0000    0     1.008          2.841565301594641          3.832299634965211         -0.119565171756472
  10 H     1.0000    0     1.008         -0.324061301791330          3.373404387983351          0.816631062377521
  11 H     1.0000    0     1.008          2.123009647201390          3.075879635914395          3.059135304032707
  12 H     1.0000    0     1.008          3.693306235313158         -0.828616315711419          1.150065955514433
  13 H     1.0000    0     1.008          0.444445602174662         -1.184137730370199          1.597376134576051
  14 H     1.0000    0     1.008         -1.197533178036534          2.069915872263012         -3.271842674899269
  15 H     1.0000    0     1.008         -1.232924424874555         -0.568345501814387         -5.318572305374929
  16 H     1.0000    0     1.008         -2.602731822907951         -0.806391231343589         -2.262701970189898
  17 H     1.0000    0     1.008          6.630564834929229         -1.504800294136175         -2.742436904571425
  18 H     1.0000    0     1.008          6.943387424609155          1.138859541090330         -4.809689733381512
  19 H     1.0000    0     1.008          6.252809841205702          1.635505005932433         -1.568982223681306
  20 H     1.0000    0     1.008          0.128993255244852         -4.691430390729471         -1.486771183754325
  21 H     1.0000    0     1.008          1.897086981741046         -6.852415508689623         -5.334518431299566
  22 H     1.0000    0     1.008          3.458106348114993         -3.879652194385712         -6.282465204199157

--------------------------------
INTERNAL COORDINATES (ANGSTROEM)
--------------------------------
 C      0   0   0   0.000000     0.000     0.000
 C      1   0   0   1.532540     0.000     0.000
 C      2   1   0   1.545099   115.194     0.000
 C      3   2   1   1.535743   111.866   302.451
 O      3   2   1   1.429099   113.019    59.704
 C      5   3   2   1.421994   119.042    45.444
 C      3   2   1   1.531350   108.940   184.368
 C      7   3   2   1.464767   122.843   212.311
 O      7   3   2   1.428996   119.060   282.867
 H      1   2   3   1.093520   111.503   307.923
 H      1   2   3   1.093853   111.769    68.243
 H      1   2   3   1.094204   110.463   187.769
 H      2   1   3   1.095470   110.039   122.937
 H      2   1   3   1.096880   109.478   238.502
 H      4   3   2   1.091445   110.440    62.479
 H      4   3   2   1.093255   109.881   181.478
 H      4   3   2   1.094407   111.173   301.733
 H      6   5   3   1.092385   112.379    53.138
 H      6   5   3   1.093558   105.618   172.306
 H      6   5   3   1.098150   112.156   289.697
 H      7   3   2   1.092583   113.431    60.365
 H      8   7   3   1.088743   119.927   209.861
 H      8   7   3   1.086807   118.724     3.362

---------------------------
INTERNAL COORDINATES (A.U.)
---------------------------
 C      0   0   0   0.000000     0.000     0.000
 C      1   0   0   2.896080     0.000     0.000
 C      2   1   0   2.919814   115.194     0.000
 C      3   2   1   2.902134   111.866   302.451
 O      3   2   1   2.700606   113.019    59.704
 C      5   3   2   2.687179   119.042    45.444
 C      3   2   1   2.893832   108.940   184.368
 C      7   3   2   2.768009   122.843   212.311
 O      7   3   2   2.700411   119.060   282.867
 H      1   2   3   2.066454   111.503   307.923
 H      1   2   3   2.067082   111.769    68.243
 H      1   2   3   2.067747   110.463   187.769
 H      2   1   3   2.070139   110.039   122.937
 H      2   1   3   2.072803   109.478   238.502
 H      4   3   2   2.062533   110.440    62.479
 H      4   3   2   2.065953   109.881   181.478
 H      4   3   2   2.068129   111.173   301.733
 H      6   5   3   2.064308   112.379    53.138
 H      6   5   3   2.066526   105.618   172.306
 H      6   5   3   2.075202   112.156   289.697
 H      7   3   2   2.064683   113.431    60.365
 H      8   7   3   2.057426   119.927   209.861
 H      8   7   3   2.053768   118.724     3.362

---------------------
BASIS SET INFORMATION
---------------------
There are 3 groups of distinct atoms

 Group   1 Type C   : 11s6p2d1f contracted to 5s3p2d1f pattern {62111/411/11/1}
 Group   2 Type O   : 11s6p2d1f contracted to 5s3p2d1f pattern {62111/411/11/1}
 Group   3 Type H   : 5s1p contracted to 3s1p pattern {311/1}

Atom   0C    basis set group =>   1
Atom   1C    basis set group =>   1
Atom   2C    basis set group =>   1
Atom   3C    basis set group =>   1
Atom   4O    basis set group =>   2
Atom   5C    basis set group =>   1
Atom   6C    basis set group =>   1
Atom   7C    basis set group =>   1
Atom   8O    basis set group =>   2
Atom   9H    basis set group =>   3
Atom  10H    basis set group =>   3
Atom  11H    basis set group =>   3
Atom  12H    basis set group =>   3
Atom  13H    basis set group =>   3
Atom  14H    basis set group =>   3
Atom  15H    basis set group =>   3
Atom  16H    basis set group =>   3
Atom  17H    basis set group =>   3
Atom  18H    basis set group =>   3
Atom  19H    basis set group =>   3
Atom  20H    basis set group =>   3
Atom  21H    basis set group =>   3
Atom  22H    basis set group =>   3
-------------------------------
AUXILIARY BASIS SET INFORMATION
-------------------------------
There are 3 groups of distinct atoms

 Group   1 Type C   : 14s10p6d2f1g contracted to 10s8p5d1f1g pattern {5111111111/31111111/21111/2/1}
 Group   2 Type O   : 14s10p6d2f1g contracted to 10s8p4d2f1g pattern {5111111111/31111111/3111/11/1}
 Group   3 Type H   : 4s2p2d contracted to 2s2p2d pattern {31/11/11}

Atom   0C    basis set group =>   1
Atom   1C    basis set group =>   1
Atom   2C    basis set group =>   1
Atom   3C    basis set group =>   1
Atom   4O    basis set group =>   2
Atom   5C    basis set group =>   1
Atom   6C    basis set group =>   1
Atom   7C    basis set group =>   1
Atom   8O    basis set group =>   2
Atom   9H    basis set group =>   3
Atom  10H    basis set group =>   3
Atom  11H    basis set group =>   3
Atom  12H    basis set group =>   3
Atom  13H    basis set group =>   3
Atom  14H    basis set group =>   3
Atom  15H    basis set group =>   3
Atom  16H    basis set group =>   3
Atom  17H    basis set group =>   3
Atom  18H    basis set group =>   3
Atom  19H    basis set group =>   3
Atom  20H    basis set group =>   3
Atom  21H    basis set group =>   3
Atom  22H    basis set group =>   3
------------------------------------------------------------------------------
                           ORCA GTO INTEGRAL CALCULATION
                           -- RI-GTO INTEGRALS CHOSEN --
------------------------------------------------------------------------------

                         BASIS SET STATISTICS AND STARTUP INFO

Gaussian basis set:
 # of primitive gaussian shells          ...  264
 # of primitive gaussian functions       ...  526
 # of contracted shells                  ...  155
 # of contracted basis functions         ...  363
 Highest angular momentum                ...    3
 Maximum contraction depth               ...    6
Auxiliary gaussian basis set:
 # of primitive gaussian shells          ...  409
 # of primitive gaussian functions       ... 1153
 # of contracted shells                  ...  309
 # of contracted aux-basis functions     ...  931
 Highest angular momentum                ...    4
 Maximum contraction depth               ...    5
Ratio of auxiliary to basis functions    ...  2.56
Integral package used                  ... LIBINT
 One Electron integrals                  ... done
 Ordering auxiliary basis shells         ... done
 Integral threshhold             Thresh  ...  2.500e-11
 Primitive cut-off               TCut    ...  2.500e-12
 Pre-screening matrix                    ... done
 Shell pair data                         ... 
 Ordering of the shell pairs             ... done (   0.002 sec) 11131 of 12090 pairs
 Determination of significant pairs      ... done (   0.000 sec)
 Creation of shell pair data             ... done (   0.002 sec)
 Storage of shell pair data              ... done (   0.002 sec)
 Shell pair data done in (   0.007 sec)
 Computing two index integrals           ... done
 Cholesky decomposition of the V-matrix  ... done


Timings:
 Total evaluation time                   ...   0.449 sec (  0.007 min)
 One electron matrix time                ...   0.122 sec (  0.002 min) = 27.1%
 Schwartz matrix evaluation time         ...   0.225 sec (  0.004 min) = 50.0%
 Two index repulsion integral time       ...   0.026 sec (  0.000 min) =  5.7%
 Cholesky decomposition of V             ...   0.043 sec (  0.001 min) =  9.5%
 Three index repulsion integral time     ...   0.000 sec (  0.000 min) =  0.0%

-------------------------------------------------------------------------------
                                 ORCA SCF
-------------------------------------------------------------------------------

------------
SCF SETTINGS
------------
Hamiltonian:
 Ab initio Hamiltonian  Method          .... Hartree-Fock(GTOs)
 RI-approximation to the Coulomb term is turned on
   Number of auxiliary basis functions  .... 931
   RI-JK (J+K treated both via RI)      .... on


General Settings:
 Integral files         IntName         .... dsgdb9nsd_100314
 Hartree-Fock type      HFTyp           .... RHF
 Total Charge           Charge          ....    0
 Multiplicity           Mult            ....    1
 Number of Electrons    NEL             ....   72
 Basis Dimension        Dim             ....  363
 Nuclear Repulsion      ENuc            ....    509.1531895684 Eh

Convergence Acceleration:
 DIIS                   CNVDIIS         .... on
   Start iteration      DIISMaxIt       ....    12
   Startup error        DIISStart       ....  0.200000
   # of expansion vecs  DIISMaxEq       ....     5
   Bias factor          DIISBfac        ....   1.050
   Max. coefficient     DIISMaxC        ....  10.000
 Newton-Raphson         CNVNR           .... off
 SOSCF                  CNVSOSCF        .... on
   Start iteration      SOSCFMaxIt      ....   150
   Startup grad/error   SOSCFStart      ....  0.003300
 Level Shifting         CNVShift        .... on
   Level shift para.    LevelShift      ....    0.2500
   Turn off err/grad.   ShiftErr        ....    0.0010
 Zerner damping         CNVZerner       .... off
 Static damping         CNVDamp         .... on
   Fraction old density DampFac         ....    0.7000
   Max. Damping (<1)    DampMax         ....    0.9800
   Min. Damping (>=0)   DampMin         ....    0.0000
   Turn off err/grad.   DampErr         ....    0.1000
 Fernandez-Rico         CNVRico         .... off

SCF Procedure:
 Maximum # iterations   MaxIter         ....   125
 SCF integral mode      SCFMode         .... Direct
   Integral package                     .... LIBINT
 Reset frequeny         DirectResetFreq ....    20
 Integral Threshold     Thresh          ....  2.500e-11 Eh
 Primitive CutOff       TCut            ....  2.500e-12 Eh

Convergence Tolerance:
 Convergence Check Mode ConvCheckMode   .... Total+1el-Energy
 Energy Change          TolE            ....  1.000e-08 Eh
 1-El. energy change                    ....  1.000e-05 Eh
 Orbital Gradient       TolG            ....  1.000e-05
 Orbital Rotation angle TolX            ....  1.000e-05
 DIIS Error             TolErr          ....  5.000e-07


Diagonalization of the overlap matrix:
Smallest eigenvalue                        ... 8.676e-05
Time for diagonalization                   ...    0.040 sec
Threshold for overlap eigenvalues          ... 1.000e-08
Number of eigenvalues below threshold      ... 0
Time for construction of square roots      ...    0.022 sec
Total time needed                          ...    0.062 sec

-------------------
DFT GRID GENERATION
-------------------

General Integration Accuracy     IntAcc      ...  4.340
Radial Grid Type                 RadialGrid  ... Gauss-Chebyshev
Angular Grid (max. acc.)         AngularGrid ... Lebedev-110
Angular grid pruning method      GridPruning ... 3 (G Style)
Weight generation scheme         WeightScheme... Becke
Basis function cutoff            BFCut       ...    1.0000e-11
Integration weight cutoff        WCut        ...    1.0000e-14
Grids for H and He will be reduced by one unit

# of grid points (after initial pruning)     ...  26140 (   0.0 sec)
# of grid points (after weights+screening)   ...  23565 (   0.2 sec)
nearest neighbour list constructed           ...    0.0 sec
Grid point re-assignment to atoms done       ...    0.0 sec
Grid point division into batches done        ...    0.0 sec
Reduced shell lists constructed in    1.6 sec

Total number of grid points                  ...    23565
Total number of batches                      ...      381
Average number of points per batch           ...       61
Average number of grid points per atom       ...     1025
Average number of shells per batch           ...   104.41 (67.36%)
Average number of basis functions per batch  ...   248.84 (68.55%)
Average number of large shells per batch     ...    79.45 (76.09%)
Average number of large basis fcns per batch ...   185.45 (74.52%)
Average number of aux-shells per batch       ...   104.41 (33.79%)
Average number of aux functions per batch    ...   248.84 (  inf%)
Maximum spatial batch extension              ...  21.34, 20.05, 18.91 au
Average spatial batch extension              ...   3.50,  3.34,  3.42 au

Time for grid setup =    1.821 sec

------------------------------
INITIAL GUESS: MODEL POTENTIAL
------------------------------
Loading Hartree-Fock densities                     ... done
Calculating cut-offs                               ... done
Setting up the integral package                    ... done
Initializing the effective Hamiltonian             ... done
Starting the Coulomb interaction                   ... done (   1.0 sec)
Reading the grid                                   ... done
Mapping shells                                     ... done
Starting the XC term evaluation                    ... done (   0.9 sec)
Transforming the Hamiltonian                       ... done (   0.0 sec)
Diagonalizing the Hamiltonian                      ... done (   0.1 sec)
Back transforming the eigenvectors                 ... done (   0.0 sec)
Now organizing SCF variables                       ... done
                      ------------------
                      INITIAL GUESS DONE (   3.9 sec)
                      ------------------
--------------
SCF ITERATIONS
--------------
ITER       Energy         Delta-E        Max-DP      RMS-DP      [F,P]     Damp
  0   -422.6330422262   0.000000000000 0.03387440  0.00072541  0.2980665 0.7000
  1   -422.4868150320   0.146227194206 0.03393584  0.00075809  0.2483970 0.7000
                               ***Turning on DIIS***
  2   -422.5359490722  -0.049134040264 0.02379918  0.00054768  0.1808827 0.7000
  3   -423.8689047376  -1.332955665369 0.01405023  0.00030058  0.1263867 0.7000
  4   -423.0333485470   0.835556190661 0.03685791  0.00072880  0.0837933 0.0000
  5   -423.0247381611   0.008610385810 0.00788495  0.00017607  0.0186531 0.0000
  6   -422.9198521601   0.104886001089 0.00441701  0.00009324  0.0110347 0.0000
  7   -422.9598156316  -0.039963471554 0.00245383  0.00005580  0.0073337 0.0000
  8   -422.9487205492   0.011095082380 0.00195149  0.00004495  0.0037576 0.0000
                      *** Initiating the SOSCF procedure ***
                           *** Shutting down DIIS ***
                      *** Re-Reading the Fockian *** 
                      *** Removing any level shift *** 
ITER      Energy       Delta-E        Grad      Rot      Max-DP    RMS-DP
  9   -423.04060339  -0.0918828397  0.000108  0.000108  0.000473  0.000011
 10   -423.04631021  -0.0057068180  0.000029  0.000028  0.000092  0.000003
 11   -423.04631033  -0.0000001204  0.000020  0.000018  0.000039  0.000001
 12   -423.04631038  -0.0000000575  0.000003  0.000005  0.000017  0.000000
                  ***Gradient check signals convergence***
              ***Rediagonalizing the Fockian in SOSCF/NRSCF***

               *****************************************************
               *                     SUCCESS                       *
               *           SCF CONVERGED AFTER  13 CYCLES          *
               *****************************************************


----------------
TOTAL SCF ENERGY
----------------

Total Energy       :         -423.04631039 Eh          -11511.67535 eV

Components:
Nuclear Repulsion  :          509.15318957 Eh           13854.76265 eV
Electronic Energy  :         -932.19949995 Eh          -25366.43800 eV

One Electron Energy:        -1586.65820622 Eh          -43175.16477 eV
Two Electron Energy:          654.45870626 Eh           17808.72678 eV

Virial components:
Potential Energy   :         -845.52087507 Eh          -23007.79270 eV
Kinetic Energy     :          422.47456469 Eh           11496.11736 eV
Virial Ratio       :            2.00135333


---------------
SCF CONVERGENCE
---------------

  Last Energy change         ...   -1.7396e-09  Tolerance :   1.0000e-08
  Last MAX-Density change    ...    5.2588e-06  Tolerance :   1.0000e-07
  Last RMS-Density change    ...    1.4328e-07  Tolerance :   5.0000e-09
  Last Orbital Gradient      ...    1.1001e-06  Tolerance :   1.0000e-05
  Last Orbital Rotation      ...    1.6808e-06  Tolerance :   1.0000e-05

             **** THE GBW FILE WAS UPDATED (dsgdb9nsd_100314.gbw) ****
             **** DENSITY FILE WAS UPDATED (dsgdb9nsd_100314.scfp.tmp) ****
             **** ENERGY FILE WAS UPDATED (dsgdb9nsd_100314.en.tmp) ****
----------------
ORBITAL ENERGIES
----------------

  NO   OCC          E(Eh)            E(eV) 
   0   2.0000     -20.565433      -559.6139 
   1   2.0000     -20.549119      -559.1700 
   2   2.0000     -11.291852      -307.2669 
   3   2.0000     -11.283138      -307.0298 
   4   2.0000     -11.277856      -306.8861 
   5   2.0000     -11.258696      -306.3647 
   6   2.0000     -11.224628      -305.4377 
   7   2.0000     -11.215900      -305.2001 
   8   2.0000     -11.215096      -305.1783 
   9   2.0000      -1.410355       -38.3777 
  10   2.0000      -1.362768       -37.0828 
  11   2.0000      -1.080874       -29.4121 
  12   2.0000      -1.001710       -27.2579 
  13   2.0000      -0.925489       -25.1838 
  14   2.0000      -0.911670       -24.8078 
  15   2.0000      -0.898203       -24.4413 
  16   2.0000      -0.835362       -22.7314 
  17   2.0000      -0.759442       -20.6655 
  18   2.0000      -0.699076       -19.0228 
  19   2.0000      -0.675637       -18.3850 
  20   2.0000      -0.641085       -17.4448 
  21   2.0000      -0.634911       -17.2768 
  22   2.0000      -0.607525       -16.5316 
  23   2.0000      -0.585143       -15.9225 
  24   2.0000      -0.572436       -15.5768 
  25   2.0000      -0.552585       -15.0366 
  26   2.0000      -0.541224       -14.7275 
  27   2.0000      -0.531178       -14.4541 
  28   2.0000      -0.523192       -14.2368 
  29   2.0000      -0.506104       -13.7718 
  30   2.0000      -0.497655       -13.5419 
  31   2.0000      -0.482276       -13.1234 
  32   2.0000      -0.471649       -12.8342 
  33   2.0000      -0.453990       -12.3537 
  34   2.0000      -0.425757       -11.5854 
  35   2.0000      -0.401305       -10.9201 
  36   0.0000       0.135714         3.6930 
  37   0.0000       0.154691         4.2094 
  38   0.0000       0.167555         4.5594 
  39   0.0000       0.174247         4.7415 
  40   0.0000       0.190172         5.1748 
  41   0.0000       0.198367         5.3979 
  42   0.0000       0.206945         5.6313 
  43   0.0000       0.214627         5.8403 
  44   0.0000       0.225498         6.1361 
  45   0.0000       0.234889         6.3916 
  46   0.0000       0.239418         6.5149 
  47   0.0000       0.248793         6.7700 
  48   0.0000       0.252213         6.8631 
  49   0.0000       0.254238         6.9182 
  50   0.0000       0.271790         7.3958 
  51   0.0000       0.279070         7.5939 
  52   0.0000       0.285481         7.7683 
  53   0.0000       0.298549         8.1239 
  54   0.0000       0.310742         8.4557 
  55   0.0000       0.315058         8.5732 
  56   0.0000       0.323880         8.8132 
  57   0.0000       0.346990         9.4421 
  58   0.0000       0.350546         9.5388 
  59   0.0000       0.369980        10.0677 
  60   0.0000       0.371842        10.1183 
  61   0.0000       0.398034        10.8311 
  62   0.0000       0.416968        11.3463 
  63   0.0000       0.428249        11.6533 
  64   0.0000       0.438704        11.9377 
  65   0.0000       0.450364        12.2550 
  66   0.0000       0.473824        12.8934 
  67   0.0000       0.475473        12.9383 
  68   0.0000       0.497865        13.5476 
  69   0.0000       0.509102        13.8534 
  70   0.0000       0.522468        14.2171 
  71   0.0000       0.532217        14.4824 
  72   0.0000       0.539817        14.6892 
  73   0.0000       0.546462        14.8700 
  74   0.0000       0.557775        15.1778 
  75   0.0000       0.564711        15.3666 
  76   0.0000       0.568545        15.4709 
  77   0.0000       0.581158        15.8141 
  78   0.0000       0.596500        16.2316 
  79   0.0000       0.602249        16.3880 
  80   0.0000       0.603350        16.4180 
  81   0.0000       0.609685        16.5904 
  82   0.0000       0.618636        16.8339 
  83   0.0000       0.629599        17.1323 
  84   0.0000       0.634037        17.2530 
  85   0.0000       0.643920        17.5219 
  86   0.0000       0.646314        17.5871 
  87   0.0000       0.653242        17.7756 
  88   0.0000       0.665998        18.1227 
  89   0.0000       0.671917        18.2838 
  90   0.0000       0.682326        18.5670 
  91   0.0000       0.690810        18.7979 
  92   0.0000       0.708817        19.2879 
  93   0.0000       0.713318        19.4104 
  94   0.0000       0.719123        19.5683 
  95   0.0000       0.722376        19.6568 
  96   0.0000       0.740999        20.1636 
  97   0.0000       0.764002        20.7896 
  98   0.0000       0.775598        21.1051 
  99   0.0000       0.813181        22.1278 
 100   0.0000       0.836102        22.7515 
 101   0.0000       0.865787        23.5593 
 102   0.0000       0.870066        23.6757 
 103   0.0000       0.887836        24.1593 
 104   0.0000       0.916417        24.9370 
 105   0.0000       0.921829        25.0842 
 106   0.0000       0.950230        25.8571 
 107   0.0000       0.962180        26.1822 
 108   0.0000       1.001686        27.2572 
 109   0.0000       1.017676        27.6924 
 110   0.0000       1.025269        27.8990 
 111   0.0000       1.037221        28.2242 
 112   0.0000       1.063567        28.9411 
 113   0.0000       1.065468        28.9929 
 114   0.0000       1.082896        29.4671 
 115   0.0000       1.093865        29.7656 
 116   0.0000       1.110231        30.2109 
 117   0.0000       1.133751        30.8509 
 118   0.0000       1.143642        31.1201 
 119   0.0000       1.181370        32.1467 
 120   0.0000       1.194726        32.5101 
 121   0.0000       1.210448        32.9380 
 122   0.0000       1.215977        33.0884 
 123   0.0000       1.242751        33.8170 
 124   0.0000       1.257289        34.2126 
 125   0.0000       1.268560        34.5193 
 126   0.0000       1.277242        34.7555 
 127   0.0000       1.313817        35.7508 
 128   0.0000       1.336278        36.3620 
 129   0.0000       1.338262        36.4160 
 130   0.0000       1.358678        36.9715 
 131   0.0000       1.363365        37.0990 
 132   0.0000       1.377032        37.4710 
 133   0.0000       1.385598        37.7040 
 134   0.0000       1.409926        38.3660 
 135   0.0000       1.428543        38.8726 
 136   0.0000       1.465822        39.8871 
 137   0.0000       1.486058        40.4377 
 138   0.0000       1.502887        40.8956 
 139   0.0000       1.542441        41.9719 
 140   0.0000       1.580216        42.9999 
 141   0.0000       1.598578        43.4995 
 142   0.0000       1.617586        44.0168 
 143   0.0000       1.645647        44.7803 
 144   0.0000       1.702269        46.3211 
 145   0.0000       1.726001        46.9669 
 146   0.0000       1.755547        47.7709 
 147   0.0000       1.789140        48.6850 
 148   0.0000       1.792514        48.7768 
 149   0.0000       1.803334        49.0712 
 150   0.0000       1.815576        49.4043 
 151   0.0000       1.818184        49.4753 
 152   0.0000       1.831639        49.8414 
 153   0.0000       1.847502        50.2731 
 154   0.0000       1.855684        50.4957 
 155   0.0000       1.865197        50.7546 
 156   0.0000       1.873593        50.9830 
 157   0.0000       1.885472        51.3063 
 158   0.0000       1.898590        51.6632 
 159   0.0000       1.912585        52.0441 
 160   0.0000       1.921044        52.2743 
 161   0.0000       1.937559        52.7237 
 162   0.0000       1.947643        52.9981 
 163   0.0000       1.955083        53.2005 
 164   0.0000       1.962148        53.3928 
 165   0.0000       1.980892        53.9028 
 166   0.0000       2.031285        55.2741 
 167   0.0000       2.033508        55.3346 
 168   0.0000       2.050229        55.7896 
 169   0.0000       2.066742        56.2389 
 170   0.0000       2.094891        57.0049 
 171   0.0000       2.122729        57.7624 
 172   0.0000       2.137659        58.1686 
 173   0.0000       2.168799        59.0160 
 174   0.0000       2.180051        59.3222 
 175   0.0000       2.192255        59.6543 
 176   0.0000       2.211305        60.1727 
 177   0.0000       2.223876        60.5147 
 178   0.0000       2.245914        61.1144 
 179   0.0000       2.273281        61.8591 
 180   0.0000       2.285343        62.1873 
 181   0.0000       2.301314        62.6219 
 182   0.0000       2.333648        63.5018 
 183   0.0000       2.359334        64.2007 
 184   0.0000       2.364719        64.3473 
 185   0.0000       2.387393        64.9643 
 186   0.0000       2.399733        65.3001 
 187   0.0000       2.431000        66.1509 
 188   0.0000       2.445805        66.5538 
 189   0.0000       2.453810        66.7716 
 190   0.0000       2.488405        67.7130 
 191   0.0000       2.514489        68.4227 
 192   0.0000       2.524513        68.6955 
 193   0.0000       2.535540        68.9955 
 194   0.0000       2.553009        69.4709 
 195   0.0000       2.588780        70.4443 
 196   0.0000       2.620981        71.3205 
 197   0.0000       2.625071        71.4318 
 198   0.0000       2.632316        71.6290 
 199   0.0000       2.635161        71.7064 
 200   0.0000       2.656061        72.2751 
 201   0.0000       2.667696        72.5917 
 202   0.0000       2.672277        72.7164 
 203   0.0000       2.688191        73.1494 
 204   0.0000       2.706345        73.6434 
 205   0.0000       2.720031        74.0158 
 206   0.0000       2.728811        74.2547 
 207   0.0000       2.742357        74.6233 
 208   0.0000       2.768740        75.3412 
 209   0.0000       2.778467        75.6059 
 210   0.0000       2.785170        75.7883 
 211   0.0000       2.814461        76.5854 
 212   0.0000       2.819935        76.7343 
 213   0.0000       2.833084        77.0921 
 214   0.0000       2.856524        77.7300 
 215   0.0000       2.866876        78.0117 
 216   0.0000       2.875794        78.2543 
 217   0.0000       2.879151        78.3457 
 218   0.0000       2.894490        78.7631 
 219   0.0000       2.906950        79.1021 
 220   0.0000       2.917057        79.3772 
 221   0.0000       2.940561        80.0167 
 222   0.0000       2.953246        80.3619 
 223   0.0000       2.979107        81.0656 
 224   0.0000       2.991879        81.4132 
 225   0.0000       2.995175        81.5029 
 226   0.0000       3.011884        81.9575 
 227   0.0000       3.028536        82.4106 
 228   0.0000       3.034391        82.5700 
 229   0.0000       3.037133        82.6446 
 230   0.0000       3.059229        83.2459 
 231   0.0000       3.076359        83.7120 
 232   0.0000       3.112204        84.6874 
 233   0.0000       3.129406        85.1555 
 234   0.0000       3.145404        85.5908 
 235   0.0000       3.163768        86.0905 
 236   0.0000       3.196773        86.9886 
 237   0.0000       3.215663        87.5026 
 238   0.0000       3.235402        88.0398 
 239   0.0000       3.258148        88.6587 
 240   0.0000       3.264288        88.8258 
 241   0.0000       3.323483        90.4366 
 242   0.0000       3.343116        90.9708 
 243   0.0000       3.364347        91.5485 
 244   0.0000       3.371442        91.7416 
 245   0.0000       3.388918        92.2171 
 246   0.0000       3.426606        93.2427 
 247   0.0000       3.436924        93.5235 
 248   0.0000       3.460241        94.1579 
 249   0.0000       3.468715        94.3885 
 250   0.0000       3.490744        94.9880 
 251   0.0000       3.506093        95.4056 
 252   0.0000       3.519446        95.7690 
 253   0.0000       3.538153        96.2780 
 254   0.0000       3.542588        96.3987 
 255   0.0000       3.549502        96.5868 
 256   0.0000       3.576415        97.3192 
 257   0.0000       3.591022        97.7167 
 258   0.0000       3.596886        97.8762 
 259   0.0000       3.613680        98.3332 
 260   0.0000       3.635703        98.9325 
 261   0.0000       3.641260        99.0837 
 262   0.0000       3.656376        99.4950 
 263   0.0000       3.676080       100.0312 
 264   0.0000       3.686576       100.3168 
 265   0.0000       3.701722       100.7290 
 266   0.0000       3.711712       101.0008 
 267   0.0000       3.722886       101.3049 
 268   0.0000       3.735002       101.6346 
 269   0.0000       3.749924       102.0406 
 270   0.0000       3.759521       102.3018 
 271   0.0000       3.777383       102.7878 
 272   0.0000       3.784589       102.9839 
 273   0.0000       3.794987       103.2668 
 274   0.0000       3.840000       104.4917 
 275   0.0000       3.854845       104.8957 
 276   0.0000       3.861715       105.0826 
 277   0.0000       3.877613       105.5152 
 278   0.0000       3.900799       106.1461 
 279   0.0000       3.909201       106.3748 
 280   0.0000       3.926608       106.8484 
 281   0.0000       3.955822       107.6434 
 282   0.0000       3.982340       108.3650 
 283   0.0000       3.991349       108.6101 
 284   0.0000       4.000903       108.8701 
 285   0.0000       4.031609       109.7057 
 286   0.0000       4.058073       110.4258 
 287   0.0000       4.064968       110.6134 
 288   0.0000       4.104186       111.6806 
 289   0.0000       4.132983       112.4642 
 290   0.0000       4.144785       112.7853 
 291   0.0000       4.179873       113.7401 
 292   0.0000       4.239293       115.3570 
 293   0.0000       4.280971       116.4911 
 294   0.0000       4.308121       117.2299 
 295   0.0000       4.324046       117.6633 
 296   0.0000       4.374892       119.0469 
 297   0.0000       4.382861       119.2637 
 298   0.0000       4.418790       120.2414 
 299   0.0000       4.439696       120.8103 
 300   0.0000       4.456509       121.2678 
 301   0.0000       4.483724       122.0083 
 302   0.0000       4.529061       123.2420 
 303   0.0000       4.554541       123.9354 
 304   0.0000       4.574313       124.4734 
 305   0.0000       4.589914       124.8979 
 306   0.0000       4.621934       125.7692 
 307   0.0000       4.627384       125.9175 
 308   0.0000       4.673415       127.1701 
 309   0.0000       4.689770       127.6151 
 310   0.0000       4.736199       128.8785 
 311   0.0000       4.783493       130.1655 
 312   0.0000       4.793477       130.4371 
 313   0.0000       4.817293       131.0852 
 314   0.0000       4.837074       131.6235 
 315   0.0000       4.867264       132.4450 
 316   0.0000       4.926591       134.0593 
 317   0.0000       4.930612       134.1688 
 318   0.0000       4.951848       134.7466 
 319   0.0000       5.003082       136.1408 
 320   0.0000       5.040418       137.1568 
 321   0.0000       5.090177       138.5107 
 322   0.0000       5.105752       138.9346 
 323   0.0000       5.157435       140.3409 
 324   0.0000       5.195112       141.3662 
 325   0.0000       5.304094       144.3317 
 326   0.0000       5.330272       145.0441 
 327   0.0000       5.382308       146.4600 
 328   0.0000       5.475113       148.9854 
 329   0.0000       5.517614       150.1419 
 330   0.0000       5.766283       156.9085 
 331   0.0000       5.837954       158.8588 
 332   0.0000       5.881552       160.0452 
 333   0.0000       5.944345       161.7539 
 334   0.0000       6.196385       168.6122 
 335   0.0000       6.217252       169.1800 
 336   0.0000       6.263522       170.4391 
 337   0.0000       6.304509       171.5544 
 338   0.0000       6.375941       173.4982 
 339   0.0000       6.419041       174.6710 
 340   0.0000       6.469063       176.0322 
 341   0.0000       6.577134       178.9729 
 342   0.0000       6.683384       181.8641 
 343   0.0000       6.712542       182.6576 
 344   0.0000       7.153637       194.6603 
 345   0.0000       7.195053       195.7874 
 346   0.0000       7.284008       198.2079 
 347   0.0000       7.319177       199.1649 
 348   0.0000       7.386344       200.9926 
 349   0.0000       7.504808       204.2162 
 350   0.0000       7.541379       205.2114 
 351   0.0000       7.719469       210.0574 
 352   0.0000       7.775468       211.5812 
 353   0.0000       7.942120       216.1161 
 354   0.0000      23.423276       637.3798 
 355   0.0000      23.453428       638.2002 
 356   0.0000      23.479144       638.9000 
 357   0.0000      23.526982       640.2017 
 358   0.0000      23.647480       643.4806 
 359   0.0000      23.716490       645.3585 
 360   0.0000      23.823070       648.2587 
 361   0.0000      45.643022      1242.0098 
 362   0.0000      45.974863      1251.0396 

                    ********************************
                    * MULLIKEN POPULATION ANALYSIS *
                    ********************************

-----------------------
MULLIKEN ATOMIC CHARGES
-----------------------
   0 C :   -0.365868
   1 C :   -0.215988
   2 C :    0.412626
   3 C :   -0.380557
   4 O :   -0.438892
   5 C :   -0.171149
   6 C :    0.039490
   7 C :    0.000494
   8 O :   -0.462353
   9 H :    0.117436
  10 H :    0.107679
  11 H :    0.115107
  12 H :    0.119760
  13 H :    0.094276
  14 H :    0.122683
  15 H :    0.115529
  16 H :    0.099626
  17 H :    0.149252
  18 H :    0.114593
  19 H :    0.090999
  20 H :    0.108490
  21 H :    0.102703
  22 H :    0.124065
Sum of atomic charges:    0.0000000

--------------------------------
MULLIKEN REDUCED ORBITAL CHARGES
--------------------------------
  0 C s       :     3.245586  s :     3.245586
      pz      :     1.061277  p :     3.041935
      px      :     1.049477
      py      :     0.931181
      dz2     :     0.017149  d :     0.073816
      dxz     :     0.007158
      dyz     :     0.015788
      dx2y2   :     0.014583
      dxy     :     0.019138
      f0      :     0.000872  f :     0.004531
      f+1     :     0.000545
      f-1     :     0.000558
      f+2     :     0.000441
      f-2     :     0.000213
      f+3     :     0.000837
      f-3     :     0.001065
  1 C s       :     3.167969  s :     3.167969
      pz      :     0.929556  p :     2.935274
      px      :     1.045290
      py      :     0.960428
      dz2     :     0.022913  d :     0.106355
      dxz     :     0.015934
      dyz     :     0.025774
      dx2y2   :     0.018126
      dxy     :     0.023608
      f0      :     0.001615  f :     0.006390
      f+1     :     0.000701
      f-1     :     0.001116
      f+2     :     0.000690
      f-2     :     0.000293
      f+3     :     0.000747
      f-3     :     0.001229
  2 C s       :     2.946954  s :     2.946954
      pz      :     0.817640  p :     2.395806
      px      :     0.755645
      py      :     0.822521
      dz2     :     0.059866  d :     0.228719
      dxz     :     0.046447
      dyz     :     0.032295
      dx2y2   :     0.056726
      dxy     :     0.033385
      f0      :     0.002070  f :     0.015895
      f+1     :     0.002971
      f-1     :     0.001896
      f+2     :     0.002746
      f-2     :     0.001822
      f+3     :     0.002222
      f-3     :     0.002168
  3 C s       :     3.260134  s :     3.260134
      pz      :     1.049627  p :     3.047354
      px      :     0.934815
      py      :     1.062912
      dz2     :     0.016478  d :     0.068524
      dxz     :     0.015402
      dyz     :     0.006645
      dx2y2   :     0.017878
      dxy     :     0.012120
      f0      :     0.000833  f :     0.004544
      f+1     :     0.000506
      f-1     :     0.000587
      f+2     :     0.000559
      f-2     :     0.000340
      f+3     :     0.000528
      f-3     :     0.001192
  4 O s       :     3.787994  s :     3.787994
      pz      :     1.622364  p :     4.609878
      px      :     1.217489
      py      :     1.770025
      dz2     :     0.005042  d :     0.038953
      dxz     :     0.013718
      dyz     :     0.005193
      dx2y2   :     0.008219
      dxy     :     0.006782
      f0      :     0.000194  f :     0.002067
      f+1     :     0.000268
      f-1     :     0.000104
      f+2     :     0.000353
      f-2     :     0.000339
      f+3     :     0.000457
      f-3     :     0.000352
  5 C s       :     3.222656  s :     3.222656
      pz      :     1.043145  p :     2.819053
      px      :     0.698363
      py      :     1.077545
      dz2     :     0.016102  d :     0.120138
      dxz     :     0.030386
      dyz     :     0.018164
      dx2y2   :     0.019825
      dxy     :     0.035661
      f0      :     0.000583  f :     0.009303
      f+1     :     0.001597
      f-1     :     0.000950
      f+2     :     0.001655
      f-2     :     0.000543
      f+3     :     0.001684
      f-3     :     0.002291
  6 C s       :     3.123057  s :     3.123057
      pz      :     0.982942  p :     2.669486
      px      :     0.760214
      py      :     0.926330
      dz2     :     0.026014  d :     0.153081
      dxz     :     0.031579
      dyz     :     0.023128
      dx2y2   :     0.039361
      dxy     :     0.032998
      f0      :     0.002048  f :     0.014886
      f+1     :     0.001421
      f-1     :     0.001627
      f+2     :     0.001552
      f-2     :     0.002120
      f+3     :     0.003515
      f-3     :     0.002604
  7 C s       :     3.192047  s :     3.192047
      pz      :     0.770243  p :     2.671234
      px      :     0.895388
      py      :     1.005603
      dz2     :     0.025188  d :     0.123562
      dxz     :     0.029915
      dyz     :     0.036420
      dx2y2   :     0.013954
      dxy     :     0.018085
      f0      :     0.002746  f :     0.012663
      f+1     :     0.002399
      f-1     :     0.002391
      f+2     :     0.001689
      f-2     :     0.002419
      f+3     :     0.000760
      f-3     :     0.000260
  8 O s       :     3.869208  s :     3.869208
      pz      :     1.385933  p :     4.547291
      px      :     1.420612
      py      :     1.740746
      dz2     :     0.011063  d :     0.043615
      dxz     :     0.012200
      dyz     :     0.003464
      dx2y2   :     0.007135
      dxy     :     0.009754
      f0      :     0.000339  f :     0.002239
      f+1     :     0.000445
      f-1     :     0.000128
      f+2     :     0.000313
      f-2     :     0.000256
      f+3     :     0.000280
      f-3     :     0.000478
  9 H s       :     0.860596  s :     0.860596
      pz      :     0.007396  p :     0.021968
      px      :     0.007357
      py      :     0.007215
 10 H s       :     0.870473  s :     0.870473
      pz      :     0.003908  p :     0.021848
      px      :     0.012918
      py      :     0.005022
 11 H s       :     0.863166  s :     0.863166
      pz      :     0.013309  p :     0.021727
      px      :     0.004272
      py      :     0.004146
 12 H s       :     0.857947  s :     0.857947
      pz      :     0.004901  p :     0.022293
      px      :     0.012318
      py      :     0.005074
 13 H s       :     0.883609  s :     0.883609
      pz      :     0.007166  p :     0.022115
      px      :     0.008345
      py      :     0.006604
 14 H s       :     0.854995  s :     0.854995
      pz      :     0.003788  p :     0.022322
      px      :     0.003666
      py      :     0.014868
 15 H s       :     0.862489  s :     0.862489
      pz      :     0.013908  p :     0.021983
      px      :     0.003704
      py      :     0.004371
 16 H s       :     0.878755  s :     0.878755
      pz      :     0.006232  p :     0.021619
      px      :     0.010282
      py      :     0.005104
 17 H s       :     0.829242  s :     0.829242
      pz      :     0.003818  p :     0.021506
      px      :     0.003595
      py      :     0.014093
 18 H s       :     0.864458  s :     0.864458
      pz      :     0.010379  p :     0.020949
      px      :     0.005368
      py      :     0.005202
 19 H s       :     0.888339  s :     0.888339
      pz      :     0.010226  p :     0.020662
      px      :     0.002632
      py      :     0.007805
 20 H s       :     0.868892  s :     0.868892
      pz      :     0.007008  p :     0.022618
      px      :     0.009493
      py      :     0.006117
 21 H s       :     0.875253  s :     0.875253
      pz      :     0.003421  p :     0.022044
      px      :     0.005040
      py      :     0.013583
 22 H s       :     0.853450  s :     0.853450
      pz      :     0.009726  p :     0.022484
      px      :     0.005148
      py      :     0.007610


                     *******************************
                     * LOEWDIN POPULATION ANALYSIS *
                     *******************************

----------------------
LOEWDIN ATOMIC CHARGES
----------------------
   0 C :   -0.283845
   1 C :   -0.229209
   2 C :   -0.342395
   3 C :   -0.227511
   4 O :    0.125094
   5 C :   -0.308506
   6 C :   -0.225710
   7 C :   -0.216226
   8 O :    0.082313
   9 H :    0.114219
  10 H :    0.109830
  11 H :    0.111701
  12 H :    0.136010
  13 H :    0.133273
  14 H :    0.118913
  15 H :    0.119462
  16 H :    0.115908
  17 H :    0.105289
  18 H :    0.102092
  19 H :    0.092770
  20 H :    0.135298
  21 H :    0.111322
  22 H :    0.119906

-------------------------------
LOEWDIN REDUCED ORBITAL CHARGES
-------------------------------
  0 C s       :     2.825036  s :     2.825036
      pz      :     1.053332  p :     3.154768
      px      :     1.060637
      py      :     1.040800
      dz2     :     0.059565  d :     0.279098
      dxz     :     0.020980
      dyz     :     0.062985
      dx2y2   :     0.057363
      dxy     :     0.078204
      f0      :     0.003337  f :     0.024943
      f+1     :     0.002033
      f-1     :     0.003276
      f+2     :     0.003425
      f-2     :     0.003550
      f+3     :     0.005298
      f-3     :     0.004023
  1 C s       :     2.771954  s :     2.771954
      pz      :     0.985187  p :     3.023414
      px      :     1.018041
      py      :     1.020186
      dz2     :     0.078918  d :     0.397046
      dxz     :     0.065629
      dyz     :     0.102697
      dx2y2   :     0.069553
      dxy     :     0.080250
      f0      :     0.006928  f :     0.036795
      f+1     :     0.004250
      f-1     :     0.006710
      f+2     :     0.004952
      f-2     :     0.004706
      f+3     :     0.004783
      f-3     :     0.004466
  2 C s       :     2.702629  s :     2.702629
      pz      :     0.943424  p :     2.786877
      px      :     0.895755
      py      :     0.947697
      dz2     :     0.176541  d :     0.753197
      dxz     :     0.160061
      dyz     :     0.126342
      dx2y2   :     0.171388
      dxy     :     0.118866
      f0      :     0.010973  f :     0.099691
      f+1     :     0.019229
      f-1     :     0.011969
      f+2     :     0.016818
      f-2     :     0.015713
      f+3     :     0.013852
      f-3     :     0.011136
  3 C s       :     2.822348  s :     2.822348
      pz      :     1.047934  p :     3.112831
      px      :     1.012713
      py      :     1.052184
      dz2     :     0.066495  d :     0.268014
      dxz     :     0.061158
      dyz     :     0.018613
      dx2y2   :     0.072603
      dxy     :     0.049144
      f0      :     0.002955  f :     0.024319
      f+1     :     0.003015
      f-1     :     0.002875
      f+2     :     0.003142
      f-2     :     0.003887
      f+3     :     0.003080
      f-3     :     0.005365
  4 O s       :     3.267075  s :     3.267075
      pz      :     1.575961  p :     4.500818
      px      :     1.279115
      py      :     1.645742
      dz2     :     0.015648  d :     0.101315
      dxz     :     0.030563
      dyz     :     0.009000
      dx2y2   :     0.025576
      dxy     :     0.020528
      f0      :     0.000550  f :     0.005698
      f+1     :     0.001061
      f-1     :     0.000274
      f+2     :     0.001083
      f-2     :     0.000822
      f+3     :     0.000926
      f-3     :     0.000983
  5 C s       :     2.849243  s :     2.849243
      pz      :     1.074875  p :     2.983986
      px      :     0.814533
      py      :     1.094578
      dz2     :     0.049395  d :     0.417389
      dxz     :     0.116963
      dyz     :     0.054983
      dx2y2   :     0.084993
      dxy     :     0.111054
      f0      :     0.005352  f :     0.057888
      f+1     :     0.010379
      f-1     :     0.003032
      f+2     :     0.010370
      f-2     :     0.004018
      f+3     :     0.010331
      f-3     :     0.014406
  6 C s       :     2.746087  s :     2.746087
      pz      :     0.991961  p :     2.779627
      px      :     0.821072
      py      :     0.966594
      dz2     :     0.091805  d :     0.612829
      dxz     :     0.110721
      dyz     :     0.106927
      dx2y2   :     0.155468
      dxy     :     0.147908
      f0      :     0.013002  f :     0.087166
      f+1     :     0.008186
      f-1     :     0.007520
      f+2     :     0.009204
      f-2     :     0.013770
      f+3     :     0.020871
      f-3     :     0.014615
  7 C s       :     2.804112  s :     2.804112
      pz      :     0.904544  p :     2.859720
      px      :     0.925935
      py      :     1.029240
      dz2     :     0.114016  d :     0.478536
      dxz     :     0.121236
      dyz     :     0.131236
      dx2y2   :     0.054121
      dxy     :     0.057926
      f0      :     0.017497  f :     0.073859
      f+1     :     0.015617
      f-1     :     0.012349
      f+2     :     0.011251
      f-2     :     0.011433
      f+3     :     0.004150
      f-3     :     0.001560
  8 O s       :     3.370842  s :     3.370842
      pz      :     1.376532  p :     4.451768
      px      :     1.453507
      py      :     1.621729
      dz2     :     0.018035  d :     0.088720
      dxz     :     0.026904
      dyz     :     0.012020
      dx2y2   :     0.015724
      dxy     :     0.016037
      f0      :     0.001432  f :     0.006356
      f+1     :     0.000938
      f-1     :     0.000546
      f+2     :     0.000854
      f-2     :     0.000940
      f+3     :     0.000845
      f-3     :     0.000802
  9 H s       :     0.825100  s :     0.825100
      pz      :     0.021076  p :     0.060681
      px      :     0.021058
      py      :     0.018547
 10 H s       :     0.830180  s :     0.830180
      pz      :     0.012942  p :     0.059991
      px      :     0.032918
      py      :     0.014131
 11 H s       :     0.828577  s :     0.828577
      pz      :     0.033175  p :     0.059722
      px      :     0.014009
      py      :     0.012538
 12 H s       :     0.805245  s :     0.805245
      pz      :     0.013934  p :     0.058745
      px      :     0.030474
      py      :     0.014337
 13 H s       :     0.809383  s :     0.809383
      pz      :     0.017799  p :     0.057344
      px      :     0.022431
      py      :     0.017114
 14 H s       :     0.820110  s :     0.820110
      pz      :     0.012383  p :     0.060977
      px      :     0.011769
      py      :     0.036824
 15 H s       :     0.820301  s :     0.820301
      pz      :     0.034295  p :     0.060236
      px      :     0.011746
      py      :     0.014195
 16 H s       :     0.824586  s :     0.824586
      pz      :     0.018675  p :     0.059507
      px      :     0.024734
      py      :     0.016098
 17 H s       :     0.830497  s :     0.830497
      pz      :     0.013453  p :     0.064214
      px      :     0.011517
      py      :     0.039244
 18 H s       :     0.839483  s :     0.839483
      pz      :     0.028132  p :     0.058425
      px      :     0.014096
      py      :     0.016197
 19 H s       :     0.848402  s :     0.848402
      pz      :     0.028124  p :     0.058828
      px      :     0.008332
      py      :     0.022372
 20 H s       :     0.807802  s :     0.807802
      pz      :     0.018303  p :     0.056899
      px      :     0.022315
      py      :     0.016281
 21 H s       :     0.829070  s :     0.829070
      pz      :     0.010016  p :     0.059608
      px      :     0.015522
      py      :     0.034070
 22 H s       :     0.818647  s :     0.818647
      pz      :     0.023376  p :     0.061446
      px      :     0.015601
      py      :     0.022470


                      *****************************
                      * MAYER POPULATION ANALYSIS *
                      *****************************

  NA   - Mulliken gross atomic population
  ZA   - Total nuclear charge
  QA   - Mulliken gross atomic charge
  VA   - Mayer's total valence
  BVA  - Mayer's bonded valence
  FA   - Mayer's free valence

  ATOM       NA         ZA         QA         VA         BVA        FA
  0 C      6.3659     6.0000    -0.3659     3.9401     3.9401    -0.0000
  1 C      6.2160     6.0000    -0.2160     3.8669     3.8669     0.0000
  2 C      5.5874     6.0000     0.4126     3.7564     3.7564     0.0000
  3 C      6.3806     6.0000    -0.3806     3.9263     3.9263     0.0000
  4 O      8.4389     8.0000    -0.4389     1.8053     1.8053    -0.0000
  5 C      6.1711     6.0000    -0.1711     3.8857     3.8857    -0.0000
  6 C      5.9605     6.0000     0.0395     3.9404     3.9404    -0.0000
  7 C      5.9995     6.0000     0.0005     3.9261     3.9261     0.0000
  8 O      8.4624     8.0000    -0.4624     1.8457     1.8457    -0.0000
  9 H      0.8826     1.0000     0.1174     0.9666     0.9666    -0.0000
 10 H      0.8923     1.0000     0.1077     0.9683     0.9683    -0.0000
 11 H      0.8849     1.0000     0.1151     0.9686     0.9686    -0.0000
 12 H      0.8802     1.0000     0.1198     0.9669     0.9669     0.0000
 13 H      0.9057     1.0000     0.0943     0.9733     0.9733     0.0000
 14 H      0.8773     1.0000     0.1227     0.9738     0.9738    -0.0000
 15 H      0.8845     1.0000     0.1155     0.9808     0.9808     0.0000
 16 H      0.9004     1.0000     0.0996     0.9728     0.9728    -0.0000
 17 H      0.8507     1.0000     0.1493     0.9626     0.9626    -0.0000
 18 H      0.8854     1.0000     0.1146     0.9698     0.9698     0.0000
 19 H      0.9090     1.0000     0.0910     0.9532     0.9532    -0.0000
 20 H      0.8915     1.0000     0.1085     0.9645     0.9645    -0.0000
 21 H      0.8973     1.0000     0.1027     0.9651     0.9651     0.0000
 22 H      0.8759     1.0000     0.1241     0.9650     0.9650     0.0000

  Mayer bond orders larger than 0.1
B(  0-C ,  1-C ) :   0.9617 B(  0-C ,  9-H ) :   0.9905 B(  0-C , 10-H ) :   0.9912 
B(  0-C , 11-H ) :   0.9935 B(  1-C ,  2-C ) :   0.9678 B(  1-C , 12-H ) :   0.9895 
B(  1-C , 13-H ) :   0.9765 B(  2-C ,  3-C ) :   0.9248 B(  2-C ,  4-O ) :   0.9240 
B(  2-C ,  6-C ) :   0.9621 B(  3-C , 14-H ) :   0.9940 B(  3-C , 15-H ) :   0.9884 
B(  3-C , 16-H ) :   0.9883 B(  4-O ,  5-C ) :   0.9033 B(  5-C , 17-H ) :   0.9810 
B(  5-C , 18-H ) :   0.9906 B(  5-C , 19-H ) :   0.9832 B(  6-C ,  7-C ) :   1.0578 
B(  6-C ,  8-O ) :   0.9142 B(  6-C , 20-H ) :   0.9606 B(  7-C ,  8-O ) :   0.9076 
B(  7-C , 21-H ) :   0.9736 B(  7-C , 22-H ) :   0.9610 

-------
TIMINGS
-------

Total SCF time: 0 days 0 hours 3 min 33 sec 

Total time                  ....     213.487 sec
Sum of individual times     ....     218.978 sec  (102.6%)

Fock matrix formation       ....     211.321 sec  ( 99.0%)
Diagonalization             ....       1.038 sec  (  0.5%)
Density matrix formation    ....       0.058 sec  (  0.0%)
Population analysis         ....       0.225 sec  (  0.1%)
Initial guess               ....       3.856 sec  (  1.8%)
Orbital Transformation      ....       0.000 sec  (  0.0%)
Orbital Orthonormalization  ....       0.000 sec  (  0.0%)
DIIS solution               ....       0.340 sec  (  0.2%)
SOSCF solution              ....       0.320 sec  (  0.1%)

   <<< Auxbasis replaced with dsgdb9nsd_100314.AUXC.tmp (Dim=894) >>> 


------------------------------------------------------------------------------
                              ORCA MP2 CALCULATION
------------------------------------------------------------------------------

Freezing NCore=18 chemical core electrons

   <<< Use J-auxbasis for calculation of Separable RI-J derivative contributions dsgdb9nsd_100314.AUXJ.tmp (Dim=931) >>> 


---------------------
RI-MP2 ENERGY+DENSITY
---------------------
Dimension of the basis                    ...  363
Memory devoted to MP2                     ... 2000 MB   
Data format for buffers                   ... DOUBLE
Compression type for matrix containers    ... UNCOMPRESSED
Overall scaling of the MP2 energy         ...   1.000e+00 Eh
Calculating two index integrals           ... done (    0.020 sec)
Cholesky decomposition of V**-1           ... done (    0.146 sec)

-----------------
RI-TRANSFORMATION (AUX index driven)
-----------------

Dimension of the orbital-basis         ... 363
Dimension of the aux-basis             ... 894
Transformation of internal MOs         ...    0-  35
Transformation of internal/external MOs...    0-  35 to   36- 362
Number Format for Storage              ... Double (8 Byte)
Integral mode                          ... Direct

First Phase: integral generation and transformation of MO indices
  Aux angular momentum 0               ... done (    1.233 sec)
  Aux angular momentum 1               ... done (    1.671 sec)
  Aux angular momentum 2               ... done (    1.715 sec)
  Aux angular momentum 3               ... done (    1.140 sec)
  Aux angular momentum 4               ... done (    0.506 sec)
Closing buffer VIJ ( 0.00 GB; CompressionRatio= 1.94)
Closing buffer VIA ( 0.08 GB; CompressionRatio= 1.00)
  Phase 1 completed in     6.367 sec
Second Phase: sorting and transformation of aux index

IJ-Transformation
Memory available                       ... 1984 MB 
Max. # MO pairs treated in a batch     ... 36    
# of internal orbitals                 ... 36
# batches for internal orbitals        ... 1
Closing buffer IJV ( 0.00 GB; CompressionRatio= 1.00)
(ij|v) transformation done in     0.253 sec

IA-Transformation
Memory available                       ... 1984 MB 
Max. # MO pairs treated in a batch     ... 36    
# of internal orbitals                 ... 36
# batches for internal orbitals        ... 1
Closing buffer IAV ( 0.08 GB; CompressionRatio= 1.00)
(ia|v) transformation done in     1.941 sec

  Phase 2 completed in     2.219 sec
RI-Integral transformation completed in     8.587 sec
Opening buffers                              ... done
Frozen core precalculation                   ... done

Starting loop over batches of integrals:

Operator 0  - window                       ... (  9- 35)x( 36-362)
Operator 0  - Memory available             ...  2000 MB
Operator 0  - Memory needed per MO         ...   4.5 MB
Operator 0  - Number of orbitals per batch ... 27
Operator 0  - Number of batches            ... 1

OPERATOR  0   PASS   0:  MOs     9 ...   35
  Reading integrals       ... ok
  Internal MO  11
  Internal MO  14
  Internal MO  17
  Internal MO  20
  Internal MO  23
  Internal MO  26
  Internal MO  29
  Internal MO  32
  Internal MO  35
Time spent in pair loops =    54.981 sec
Deleting buffer (Ka|jb)[aa] ...done

-----------------------------------------------
 RI-MP2 CORRELATION ENERGY:     -1.644664191 Eh
-----------------------------------------------


---------------------
MP2 DENSITY FORMATION
---------------------

Completing the external part of the density      ... done
Storing the unrelaxed density                    ... done

Calculating G(D)                                 ... done
Completing the Lagrangian                        ... done
Solving the Z-vector equations                   ... 

------------------------------------------------------------------------------
                           ORCA CP-SCF CALCULATION
------------------------------------------------------------------------------

Input orbitals are from        ... dsgdb9nsd_100314.gbw
Input Perturbation             ... dsgdb9nsd_100314.pin.tmp
Wavefunction output            ... dsgdb9nsd_100314.pout.tmp
Perturbation mode              ... Real perturbation
Solver                         ... POPLE
Max. number of iterations      ... 128
Convergence tolerance          ... 1.000e-08
Integral handling              ... Direct
Number of perturbations        ... 1
Number of operators            ... 1
Orbital ranges used for CP-SCF:
 Operator 0:  Orbitals   0... 35  to  36...362
Variables per vector in CP-SCF ... 11772
Number of vectors sought       ... 1
     CP-SCF ITERATION   0: 
     CP-SCF ITERATION   1:      0.000775959
     CP-SCF ITERATION   2:      0.000137247
     CP-SCF ITERATION   3:      0.000006733
     CP-SCF ITERATION   4:      0.000000646
     CP-SCF ITERATION   5:      0.000000074
     CP-SCF ITERATION   6:      0.000000007
done
Finalizing the relaxed density                   ... done
Transforming P to the AO basis                   ... done
Storing the relaxed density                      ... done

                *********************************************
                * UNRELAXED MP2 DENSITY POPULATION ANALYSIS *
                *********************************************

------------------------------------------------------------------------------
                           ORCA POPULATION ANALYSIS
------------------------------------------------------------------------------
Input electron density              ... dsgdb9nsd_100314.pmp2ur
BaseName (.gbw .S,...)              ... dsgdb9nsd_100314

                    ********************************
                    * MULLIKEN POPULATION ANALYSIS *
                    ********************************

-----------------------
MULLIKEN ATOMIC CHARGES
-----------------------
   0 C :   -0.374831
   1 C :   -0.223263
   2 C :    0.394393
   3 C :   -0.388251
   4 O :   -0.419601
   5 C :   -0.186510
   6 C :    0.025718
   7 C :   -0.015402
   8 O :   -0.440009
   9 H :    0.120502
  10 H :    0.111076
  11 H :    0.118578
  12 H :    0.123569
  13 H :    0.098330
  14 H :    0.126118
  15 H :    0.118913
  16 H :    0.102994
  17 H :    0.151286
  18 H :    0.117689
  19 H :    0.093701
  20 H :    0.112488
  21 H :    0.105750
  22 H :    0.126761
Sum of atomic charges:    0.0000000

--------------------------------
MULLIKEN REDUCED ORBITAL CHARGES
--------------------------------
  0 C s       :     3.242837  s :     3.242837
      pz      :     1.055679  p :     3.024162
      px      :     1.043681
      py      :     0.924802
      dz2     :     0.022108  d :     0.099609
      dxz     :     0.012991
      dyz     :     0.021227
      dx2y2   :     0.018804
      dxy     :     0.024479
      f0      :     0.001389  f :     0.008223
      f+1     :     0.001054
      f-1     :     0.001101
      f+2     :     0.000991
      f-2     :     0.000737
      f+3     :     0.001406
      f-3     :     0.001545
  1 C s       :     3.164507  s :     3.164507
      pz      :     0.923337  p :     2.916728
      px      :     1.039237
      py      :     0.954154
      dz2     :     0.026678  d :     0.131730
      dxz     :     0.021750
      dyz     :     0.030878
      dx2y2   :     0.023033
      dxy     :     0.029391
      f0      :     0.002103  f :     0.010297
      f+1     :     0.001281
      f-1     :     0.001685
      f+2     :     0.001274
      f-2     :     0.000871
      f+3     :     0.001362
      f-3     :     0.001721
  2 C s       :     2.949127  s :     2.949127
      pz      :     0.814160  p :     2.388290
      px      :     0.754405
      py      :     0.819725
      dz2     :     0.062680  d :     0.248304
      dxz     :     0.050433
      dyz     :     0.037191
      dx2y2   :     0.059659
      dxy     :     0.038340
      f0      :     0.002628  f :     0.019885
      f+1     :     0.003603
      f-1     :     0.002456
      f+2     :     0.003334
      f-2     :     0.002341
      f+3     :     0.002876
      f-3     :     0.002647
  3 C s       :     3.256771  s :     3.256771
      pz      :     1.043542  p :     3.028545
      px      :     0.928441
      py      :     1.056563
      dz2     :     0.021744  d :     0.094686
      dxz     :     0.020239
      dyz     :     0.012690
      dx2y2   :     0.022573
      dxy     :     0.017440
      f0      :     0.001342  f :     0.008249
      f+1     :     0.001091
      f-1     :     0.001090
      f+2     :     0.001093
      f-2     :     0.000853
      f+3     :     0.001104
      f-3     :     0.001674
  4 O s       :     3.781950  s :     3.781950
      pz      :     1.606115  p :     4.564228
      px      :     1.205182
      py      :     1.752931
      dz2     :     0.010997  d :     0.068563
      dxz     :     0.019356
      dyz     :     0.011042
      dx2y2   :     0.014244
      dxy     :     0.012925
      f0      :     0.000588  f :     0.004860
      f+1     :     0.000683
      f-1     :     0.000492
      f+2     :     0.000757
      f-2     :     0.000740
      f+3     :     0.000847
      f-3     :     0.000754
  5 C s       :     3.220550  s :     3.220550
      pz      :     1.038282  p :     2.811431
      px      :     0.701076
      py      :     1.072072
      dz2     :     0.020803  d :     0.141838
      dxz     :     0.034658
      dyz     :     0.022919
      dx2y2   :     0.023106
      dxy     :     0.040351
      f0      :     0.001112  f :     0.012692
      f+1     :     0.002053
      f-1     :     0.001424
      f+2     :     0.002133
      f-2     :     0.001086
      f+3     :     0.002090
      f-3     :     0.002793
  6 C s       :     3.119897  s :     3.119897
      pz      :     0.977877  p :     2.662654
      px      :     0.763861
      py      :     0.920916
      dz2     :     0.029772  d :     0.173056
      dxz     :     0.036266
      dyz     :     0.027538
      dx2y2   :     0.042753
      dxy     :     0.036726
      f0      :     0.002585  f :     0.018675
      f+1     :     0.001924
      f-1     :     0.002127
      f+2     :     0.002183
      f-2     :     0.002648
      f+3     :     0.004182
      f-3     :     0.003026
  7 C s       :     3.190171  s :     3.190171
      pz      :     0.770111  p :     2.665256
      px      :     0.894422
      py      :     1.000722
      dz2     :     0.028897  d :     0.143797
      dxz     :     0.032770
      dyz     :     0.040469
      dx2y2   :     0.018957
      dxy     :     0.022705
      f0      :     0.003279  f :     0.016178
      f+1     :     0.002802
      f-1     :     0.002959
      f+2     :     0.002238
      f-2     :     0.002900
      f+3     :     0.001226
      f-3     :     0.000775
  8 O s       :     3.862502  s :     3.862502
      pz      :     1.371479  p :     4.501050
      px      :     1.405817
      py      :     1.723754
      dz2     :     0.016431  d :     0.071448
      dxz     :     0.017541
      dyz     :     0.009287
      dx2y2   :     0.012857
      dxy     :     0.015333
      f0      :     0.000731  f :     0.005008
      f+1     :     0.000846
      f-1     :     0.000512
      f+2     :     0.000705
      f-2     :     0.000652
      f+3     :     0.000688
      f-3     :     0.000875
  9 H s       :     0.854373  s :     0.854373
      pz      :     0.008440  p :     0.025126
      px      :     0.008406
      py      :     0.008280
 10 H s       :     0.863899  s :     0.863899
      pz      :     0.005047  p :     0.025025
      px      :     0.013840
      py      :     0.006137
 11 H s       :     0.856565  s :     0.856565
      pz      :     0.014213  p :     0.024857
      px      :     0.005376
      py      :     0.005268
 12 H s       :     0.850940  s :     0.850940
      pz      :     0.006036  p :     0.025491
      px      :     0.013273
      py      :     0.006182
 13 H s       :     0.876348  s :     0.876348
      pz      :     0.008235  p :     0.025322
      px      :     0.009395
      py      :     0.007692
 14 H s       :     0.848459  s :     0.848459
      pz      :     0.004916  p :     0.025423
      px      :     0.004799
      py      :     0.015708
 15 H s       :     0.855996  s :     0.855996
      pz      :     0.014782  p :     0.025091
      px      :     0.004830
      py      :     0.005479
 16 H s       :     0.872208  s :     0.872208
      pz      :     0.007321  p :     0.024798
      px      :     0.011261
      py      :     0.006216
 17 H s       :     0.824130  s :     0.824130
      pz      :     0.004943  p :     0.024584
      px      :     0.004754
      py      :     0.014887
 18 H s       :     0.858224  s :     0.858224
      pz      :     0.011311  p :     0.024088
      px      :     0.006489
      py      :     0.006288
 19 H s       :     0.882344  s :     0.882344
      pz      :     0.011223  p :     0.023955
      px      :     0.003872
      py      :     0.008860
 20 H s       :     0.861760  s :     0.861760
      pz      :     0.008062  p :     0.025752
      px      :     0.010529
      py      :     0.007160
 21 H s       :     0.869152  s :     0.869152
      pz      :     0.004536  p :     0.025097
      px      :     0.006162
      py      :     0.014399
 22 H s       :     0.847745  s :     0.847745
      pz      :     0.010656  p :     0.025494
      px      :     0.006247
      py      :     0.008591


                     *******************************
                     * LOEWDIN POPULATION ANALYSIS *
                     *******************************

----------------------
LOEWDIN ATOMIC CHARGES
----------------------
   0 C :   -0.289793
   1 C :   -0.233619
   2 C :   -0.346031
   3 C :   -0.234712
   4 O :    0.138401
   5 C :   -0.319438
   6 C :   -0.235004
   7 C :   -0.227111
   8 O :    0.097542
   9 H :    0.116078
  10 H :    0.111715
  11 H :    0.113612
  12 H :    0.137723
  13 H :    0.134956
  14 H :    0.120795
  15 H :    0.121336
  16 H :    0.117751
  17 H :    0.106596
  18 H :    0.103912
  19 H :    0.094251
  20 H :    0.136706
  21 H :    0.112923
  22 H :    0.121413

-------------------------------
LOEWDIN REDUCED ORBITAL CHARGES
-------------------------------
  0 C s       :     2.823199  s :     2.823199
      pz      :     1.045801  p :     3.130099
      px      :     1.053132
      py      :     1.031165
      dz2     :     0.065172  d :     0.306179
      dxz     :     0.026939
      dyz     :     0.068067
      dx2y2   :     0.063119
      dxy     :     0.082883
      f0      :     0.004140  f :     0.030316
      f+1     :     0.002749
      f-1     :     0.004059
      f+2     :     0.004126
      f-2     :     0.004245
      f+3     :     0.006033
      f-3     :     0.004964
  1 C s       :     2.770370  s :     2.770370
      pz      :     0.976180  p :     2.997140
      px      :     1.010401
      py      :     1.010559
      dz2     :     0.084651  d :     0.423249
      dxz     :     0.071031
      dyz     :     0.107066
      dx2y2   :     0.075309
      dxy     :     0.085193
      f0      :     0.007987  f :     0.042860
      f+1     :     0.005017
      f-1     :     0.007661
      f+2     :     0.005738
      f-2     :     0.005479
      f+3     :     0.005545
      f-3     :     0.005433
  2 C s       :     2.701940  s :     2.701940
      pz      :     0.936303  p :     2.767182
      px      :     0.890345
      py      :     0.940533
      dz2     :     0.179560  d :     0.770522
      dxz     :     0.163283
      dyz     :     0.130203
      dx2y2   :     0.174399
      dxy     :     0.123076
      f0      :     0.012209  f :     0.106388
      f+1     :     0.020041
      f-1     :     0.012977
      f+2     :     0.017613
      f-2     :     0.016514
      f+3     :     0.014750
      f-3     :     0.012285
  3 C s       :     2.820646  s :     2.820646
      pz      :     1.040080  p :     3.088258
      px      :     1.003872
      py      :     1.044306
      dz2     :     0.072026  d :     0.296028
      dxz     :     0.066502
      dyz     :     0.024625
      dx2y2   :     0.078251
      dxy     :     0.054623
      f0      :     0.003804  f :     0.029781
      f+1     :     0.003749
      f-1     :     0.003613
      f+2     :     0.003914
      f-2     :     0.004598
      f+3     :     0.003837
      f-3     :     0.006268
  4 O s       :     3.264300  s :     3.264300
      pz      :     1.560115  p :     4.455918
      px      :     1.266173
      py      :     1.629630
      dz2     :     0.021599  d :     0.132488
      dxz     :     0.036720
      dyz     :     0.015355
      dx2y2   :     0.032185
      dxy     :     0.026629
      f0      :     0.000994  f :     0.008893
      f+1     :     0.001530
      f-1     :     0.000681
      f+2     :     0.001553
      f-2     :     0.001291
      f+3     :     0.001407
      f-3     :     0.001438
  5 C s       :     2.848247  s :     2.848247
      pz      :     1.068035  p :     2.968843
      px      :     0.813354
      py      :     1.087454
      dz2     :     0.054438  d :     0.439503
      dxz     :     0.120723
      dyz     :     0.060269
      dx2y2   :     0.089235
      dxy     :     0.114837
      f0      :     0.006003  f :     0.062845
      f+1     :     0.011045
      f-1     :     0.003808
      f+2     :     0.011133
      f-2     :     0.004737
      f+3     :     0.011249
      f-3     :     0.014870
  6 C s       :     2.745142  s :     2.745142
      pz      :     0.984157  p :     2.763056
      px      :     0.820242
      py      :     0.958658
      dz2     :     0.096647  d :     0.633502
      dxz     :     0.114538
      dyz     :     0.111409
      dx2y2   :     0.159497
      dxy     :     0.151411
      f0      :     0.013573  f :     0.093304
      f+1     :     0.009207
      f-1     :     0.008642
      f+2     :     0.009992
      f-2     :     0.014406
      f+3     :     0.021495
      f-3     :     0.015988
  7 C s       :     2.803027  s :     2.803027
      pz      :     0.900202  p :     2.844118
      px      :     0.921901
      py      :     1.022015
      dz2     :     0.117717  d :     0.500790
      dxz     :     0.125758
      dyz     :     0.135670
      dx2y2   :     0.058913
[...]
      f+2     :     0.002062
      f-2     :     0.001035
      f+3     :     0.001965
      f-3     :     0.002693
  6 C s       :     3.160086  s :     3.160086
      pz      :     0.980418  p :     2.670940
      px      :     0.778014
      py      :     0.912508
      dz2     :     0.024359  d :     0.164518
      dxz     :     0.035360
      dyz     :     0.027080
      dx2y2   :     0.041344
      dxy     :     0.036375
      f0      :     0.002460  f :     0.017834
      f+1     :     0.001860
      f-1     :     0.001912
      f+2     :     0.002159
      f-2     :     0.002530
      f+3     :     0.004156
      f-3     :     0.002758
  7 C s       :     3.213908  s :     3.213908
      pz      :     0.774782  p :     2.710789
      px      :     0.914612
      py      :     1.021395
      dz2     :     0.028564  d :     0.134469
      dxz     :     0.028102
      dyz     :     0.038823
      dx2y2   :     0.018289
      dxy     :     0.020691
      f0      :     0.003198  f :     0.015472
      f+1     :     0.002669
      f-1     :     0.002908
      f+2     :     0.002167
      f-2     :     0.002649
      f+3     :     0.001125
      f-3     :     0.000757
  8 O s       :     3.859717  s :     3.859717
      pz      :     1.343831  p :     4.412275
      px      :     1.377736
      py      :     1.690709
      dz2     :     0.015314  d :     0.070165
      dxz     :     0.017446
      dyz     :     0.009733
      dx2y2   :     0.012992
      dxy     :     0.014680
      f0      :     0.000735  f :     0.004989
      f+1     :     0.000816
      f-1     :     0.000514
      f+2     :     0.000701
      f-2     :     0.000663
      f+3     :     0.000706
      f-3     :     0.000853
  9 H s       :     0.834300  s :     0.834300
      pz      :     0.008125  p :     0.024146
      px      :     0.008044
      py      :     0.007977
 10 H s       :     0.842198  s :     0.842198
      pz      :     0.005292  p :     0.024061
      px      :     0.012608
      py      :     0.006161
 11 H s       :     0.836387  s :     0.836387
      pz      :     0.012912  p :     0.023939
      px      :     0.005556
      py      :     0.005471
 12 H s       :     0.831494  s :     0.831494
      pz      :     0.006107  p :     0.024382
      px      :     0.012100
      py      :     0.006176
 13 H s       :     0.856641  s :     0.856641
      pz      :     0.007980  p :     0.024340
      px      :     0.008889
      py      :     0.007470
 14 H s       :     0.830250  s :     0.830250
      pz      :     0.005192  p :     0.024417
      px      :     0.005045
      py      :     0.014180
 15 H s       :     0.835964  s :     0.835964
      pz      :     0.013401  p :     0.024096
      px      :     0.005062
      py      :     0.005633
 16 H s       :     0.850403  s :     0.850403
      pz      :     0.007149  p :     0.023874
      px      :     0.010472
      py      :     0.006253
 17 H s       :     0.817192  s :     0.817192
      pz      :     0.005128  p :     0.023591
      px      :     0.004860
      py      :     0.013602
 18 H s       :     0.838727  s :     0.838727
      pz      :     0.010433  p :     0.023043
      px      :     0.006279
      py      :     0.006331
 19 H s       :     0.864793  s :     0.864793
      pz      :     0.010423  p :     0.022980
      px      :     0.004106
      py      :     0.008451
 20 H s       :     0.853931  s :     0.853931
      pz      :     0.007790  p :     0.024512
      px      :     0.009858
      py      :     0.006864
 21 H s       :     0.858462  s :     0.858462
      pz      :     0.004628  p :     0.023988
      px      :     0.006235
      py      :     0.013125
 22 H s       :     0.839904  s :     0.839904
      pz      :     0.009874  p :     0.024346
      px      :     0.006246
      py      :     0.008226


                     *******************************
                     * LOEWDIN POPULATION ANALYSIS *
                     *******************************

----------------------
LOEWDIN ATOMIC CHARGES
----------------------
   0 C :   -0.315653
   1 C :   -0.254228
   2 C :   -0.371603
   3 C :   -0.259686
   4 O :    0.174005
   5 C :   -0.353525
   6 C :   -0.263236
   7 C :   -0.257562
   8 O :    0.142325
   9 H :    0.124731
  10 H :    0.120938
  11 H :    0.123204
  12 H :    0.146243
  13 H :    0.144763
  14 H :    0.129201
  15 H :    0.130507
  16 H :    0.128008
  17 H :    0.110185
  18 H :    0.112907
  19 H :    0.101051
  20 H :    0.142678
  21 H :    0.118686
  22 H :    0.126063

-------------------------------
LOEWDIN REDUCED ORBITAL CHARGES
-------------------------------
  0 C s       :     2.828014  s :     2.828014
      pz      :     1.059854  p :     3.164916
      px      :     1.068602
      py      :     1.036461
      dz2     :     0.060160  d :     0.292749
      dxz     :     0.024542
      dyz     :     0.067682
      dx2y2   :     0.058831
      dxy     :     0.081534
      f0      :     0.004061  f :     0.029973
      f+1     :     0.002671
      f-1     :     0.003988
      f+2     :     0.004148
      f-2     :     0.004210
      f+3     :     0.006042
      f-3     :     0.004854
  1 C s       :     2.776660  s :     2.776660
      pz      :     0.982132  p :     3.020733
      px      :     1.022997
      py      :     1.015604
      dz2     :     0.081090  d :     0.414306
      dxz     :     0.069450
      dyz     :     0.107934
      dx2y2   :     0.071784
      dxy     :     0.084048
      f0      :     0.007931  f :     0.042529
      f+1     :     0.005016
      f-1     :     0.007612
      f+2     :     0.005700
      f-2     :     0.005429
      f+3     :     0.005590
      f-3     :     0.005251
  2 C s       :     2.710373  s :     2.710373
      pz      :     0.939242  p :     2.784156
      px      :     0.895900
      py      :     0.949014
      dz2     :     0.178790  d :     0.772107
      dxz     :     0.163478
      dyz     :     0.132612
      dx2y2   :     0.172269
      dxy     :     0.124957
      f0      :     0.011952  f :     0.104968
      f+1     :     0.019801
      f-1     :     0.012768
      f+2     :     0.017264
      f-2     :     0.016691
      f+3     :     0.014598
      f-3     :     0.011895
  3 C s       :     2.826686  s :     2.826686
      pz      :     1.053486  p :     3.120894
      px      :     1.010805
      py      :     1.056603
      dz2     :     0.068385  d :     0.282739
      dxz     :     0.063378
      dyz     :     0.023406
      dx2y2   :     0.073838
      dxy     :     0.053733
      f0      :     0.003678  f :     0.029366
      f+1     :     0.003732
      f-1     :     0.003516
      f+2     :     0.003856
      f-2     :     0.004572
      f+3     :     0.003848
      f-3     :     0.006163
  4 O s       :     3.270237  s :     3.270237
      pz      :     1.541603  p :     4.411851
      px      :     1.261784
      py      :     1.608465
      dz2     :     0.022093  d :     0.134816
      dxz     :     0.036936
      dyz     :     0.015507
      dx2y2   :     0.032686
      dxy     :     0.027595
      f0      :     0.001005  f :     0.009091
      f+1     :     0.001578
      f-1     :     0.000693
      f+2     :     0.001584
      f-2     :     0.001328
      f+3     :     0.001431
      f-3     :     0.001471
  5 C s       :     2.855993  s :     2.855993
      pz      :     1.083301  p :     3.007096
      px      :     0.821064
      py      :     1.102732
      dz2     :     0.052513  d :     0.429474
      dxz     :     0.119327
      dyz     :     0.057111
      dx2y2   :     0.084743
      dxy     :     0.115781
      f0      :     0.005926  f :     0.060962
      f+1     :     0.010603
      f-1     :     0.003672
      f+2     :     0.010896
      f-2     :     0.004508
      f+3     :     0.011125
      f-3     :     0.014233
  6 C s       :     2.754314  s :     2.754314
      pz      :     0.993986  p :     2.784671
      px      :     0.832303
      py      :     0.958382
      dz2     :     0.093421  d :     0.632954
      dxz     :     0.112984
      dyz     :     0.112573
      dx2y2   :     0.161543
      dxy     :     0.152433
      f0      :     0.013062  f :     0.091297
      f+1     :     0.009339
      f-1     :     0.008479
      f+2     :     0.009943
      f-2     :     0.013937
      f+3     :     0.020717
      f-3     :     0.015819
  7 C s       :     2.811791  s :     2.811791
      pz      :     0.903525  p :     2.872494
      px      :     0.936542
      py      :     1.032428
      dz2     :     0.117510  d :     0.495815
      dxz     :     0.122091
      dyz     :     0.136811
      dx2y2   :     0.058256
      dxy     :     0.061147
      f0      :     0.017293  f :     0.077461
      f+1     :     0.017002
      f-1     :     0.012791
      f+2     :     0.011860
      f-2     :     0.011730
      f+3     :     0.004669
      f-3     :     0.002116
  8 O s       :     3.372701  s :     3.372701
      pz      :     1.348871  p :     4.354598
      px      :     1.422139
      py      :     1.583588
      dz2     :     0.024556  d :     0.120787
      dxz     :     0.033189
      dyz     :     0.018166
      dx2y2   :     0.022186
      dxy     :     0.022691
      f0      :     0.001850  f :     0.009589
      f+1     :     0.001529
      f-1     :     0.000976
      f+2     :     0.001262
      f-2     :     0.001350
      f+3     :     0.001293
      f-3     :     0.001330
  9 H s       :     0.808304  s :     0.808304
      pz      :     0.023167  p :     0.066965
      px      :     0.023140
      py      :     0.020658
 10 H s       :     0.812677  s :     0.812677
      pz      :     0.014903  p :     0.066385
      px      :     0.035336
      py      :     0.016146
 11 H s       :     0.810686  s :     0.810686
      pz      :     0.035628  p :     0.066111
      px      :     0.015940
      py      :     0.014543
 12 H s       :     0.788263  s :     0.788263
      pz      :     0.016140  p :     0.065494
      px      :     0.032930
      py      :     0.016423
 13 H s       :     0.790862  s :     0.790862
      pz      :     0.020211  p :     0.064375
      px      :     0.024794
      py      :     0.019370
 14 H s       :     0.803466  s :     0.803466
      pz      :     0.014368  p :     0.067333
      px      :     0.013771
      py      :     0.039194
 15 H s       :     0.802875  s :     0.802875
      pz      :     0.036730  p :     0.066618
      px      :     0.013722
      py      :     0.016167
 16 H s       :     0.805862  s :     0.805862
      pz      :     0.020787  p :     0.066130
      px      :     0.027177
      py      :     0.018166
 17 H s       :     0.819401  s :     0.819401
      pz      :     0.015337  p :     0.070414
      px      :     0.013945
      py      :     0.041132
 18 H s       :     0.822615  s :     0.822615
      pz      :     0.030093  p :     0.064478
      px      :     0.016299
      py      :     0.018086
 19 H s       :     0.833466  s :     0.833466
      pz      :     0.030478  p :     0.065483
      px      :     0.010595
      py      :     0.024411
 20 H s       :     0.793665  s :     0.793665
      pz      :     0.020360  p :     0.063657
      px      :     0.024999
      py      :     0.018298
 21 H s       :     0.815612  s :     0.815612
      pz      :     0.012075  p :     0.065702
      px      :     0.017673
      py      :     0.035954
 22 H s       :     0.806502  s :     0.806502
      pz      :     0.025583  p :     0.067435
      px      :     0.017609
      py      :     0.024242


                      *****************************
                      * MAYER POPULATION ANALYSIS *
                      *****************************

  NA   - Mulliken gross atomic population
  ZA   - Total nuclear charge
  QA   - Mulliken gross atomic charge
  VA   - Mayer's total valence
  BVA  - Mayer's bonded valence
  FA   - Mayer's free valence

  ATOM       NA         ZA         QA         VA         BVA        FA
  0 C      6.4287     6.0000    -0.4287     4.0354     3.7344     0.3010
  1 C      6.2615     6.0000    -0.2615     3.9447     3.6260     0.3187
  2 C      5.7212     6.0000     0.2788     3.9520     3.6178     0.3342
  3 C      6.4339     6.0000    -0.4339     3.9936     3.6907     0.3029
  4 O      8.3316     8.0000    -0.3316     2.2369     1.8156     0.4213
  5 C      6.2615     6.0000    -0.2615     3.9995     3.7096     0.2899
  6 C      6.0134     6.0000    -0.0134     4.0349     3.6990     0.3359
  7 C      6.0746     6.0000    -0.0746     4.0475     3.7305     0.3171
  8 O      8.3471     8.0000    -0.3471     2.2680     1.8220     0.4460
  9 H      0.8584     1.0000     0.1416     0.9710     0.9221     0.0489
 10 H      0.8663     1.0000     0.1337     0.9714     0.9227     0.0488
 11 H      0.8603     1.0000     0.1397     0.9705     0.9222     0.0483
 12 H      0.8559     1.0000     0.1441     0.9676     0.9181     0.0495
 13 H      0.8810     1.0000     0.1190     0.9751     0.9244     0.0507
 14 H      0.8547     1.0000     0.1453     0.9794     0.9311     0.0483
 15 H      0.8601     1.0000     0.1399     0.9849     0.9361     0.0488
 16 H      0.8743     1.0000     0.1257     0.9765     0.9265     0.0501
 17 H      0.8408     1.0000     0.1592     0.9719     0.9249     0.0470
 18 H      0.8618     1.0000     0.1382     0.9714     0.9244     0.0470
 19 H      0.8878     1.0000     0.1122     0.9549     0.9052     0.0497
 20 H      0.8784     1.0000     0.1216     0.9700     0.9216     0.0484
 21 H      0.8825     1.0000     0.1175     0.9646     0.9170     0.0477
 22 H      0.8643     1.0000     0.1357     0.9696     0.9221     0.0475

  Mayer bond orders larger than 0.1
B(  0-C ,  1-C ) :   0.9130 B(  0-C ,  9-H ) :   0.9384 B(  0-C , 10-H ) :   0.9406 
B(  0-C , 11-H ) :   0.9411 B(  1-C ,  2-C ) :   0.9123 B(  1-C , 12-H ) :   0.9320 
B(  1-C , 13-H ) :   0.9189 B(  2-C ,  3-C ) :   0.8716 B(  2-C ,  4-O ) :   0.9410 
B(  2-C ,  6-C ) :   0.9068 B(  3-C , 14-H ) :   0.9411 B(  3-C , 15-H ) :   0.9364 
B(  3-C , 16-H ) :   0.9332 B(  4-O ,  5-C ) :   0.8857 B(  5-C , 17-H ) :   0.9277 
B(  5-C , 18-H ) :   0.9413 B(  5-C , 19-H ) :   0.9277 B(  6-C ,  7-C ) :   0.9828 
B(  6-C ,  8-O ) :   0.8854 B(  6-C , 20-H ) :   0.9080 B(  7-C ,  8-O ) :   0.8916 
B(  7-C , 21-H ) :   0.9199 B(  7-C , 22-H ) :   0.9071 


-------
TIMINGS
-------

Total time                : 1003.931 sec
Integral trafo            :    8.595 sec (  0.9%)
FC preparation            :    4.887 sec (  0.5%)
I/O of integrals          :    0.067 sec (  0.0%)
K(i,j) Operators          :   13.389 sec (  1.3%)
T(i,j) pair energies      :    1.149 sec (  0.1%)
V-calculation             :    0.020 sec (  0.0%)
V**(-1/2)                 :    0.146 sec (  0.0%)
Gamma(ia|P)               :   13.155 sec (  1.3%)
Gamma-Trafo               :    1.944 sec (  0.2%)
D(virtual)                :    4.981 sec (  0.5%)
D(internal)               :    4.858 sec (  0.5%)
W(virtual)                :    0.000 sec (  0.0%)
W(internal)               :    0.000 sec (  0.0%)
L(virtual)                :   14.769 sec (  1.5%)
L(internal)               :    0.258 sec (  0.0%)
G(D)                      :  130.497 sec ( 13.0%)
G(Z)                      :    0.000 sec (  0.0%)
Z-Vector Solution         :  804.285 sec ( 80.1%)
3-Index Derivative        :    0.000 sec (  0.0%)
2-Index Derivative        :    0.000 sec (  0.0%)
Separable Gradient (RIJ)  :    0.000 sec (  0.0%)
Separable Gradient (X)    :    0.000 sec (  0.0%)


---------------------------------------
MP2 TOTAL ENERGY:     -424.690974578 Eh
---------------------------------------

-------------------------   --------------------
FINAL SINGLE POINT ENERGY      -424.690974578008
-------------------------   --------------------


                            ***************************************
                            *     ORCA property calculations      *
                            ***************************************

                                    ---------------------
                                    Active property flags
                                    ---------------------
   (+) Dipole Moment


------------------------------------------------------------------------------
                       ORCA ELECTRIC PROPERTIES CALCULATION
------------------------------------------------------------------------------

Dipole Moment Calculation                       ... on
Quadrupole Moment Calculation                   ... off
Polarizability Calculation                      ... off
GBWName                                         ... dsgdb9nsd_100314.gbw
Electron density file                           ... dsgdb9nsd_100314.scfp.tmp

-------------
DIPOLE MOMENT
-------------
                                X             Y             Z
Electronic contribution:      1.93848      -5.81911      -2.93671
Nuclear contribution   :     -2.42939       5.89473       2.99640
                        -----------------------------------------
Total Dipole Moment    :     -0.49092       0.07562       0.05968
                        -----------------------------------------
Magnitude (a.u.)       :      0.50028
Magnitude (Debye)      :      1.27161


                         *** MP2 UNRELAXED DENSITY ***

------------------------------------------------------------------------------
                       ORCA ELECTRIC PROPERTIES CALCULATION
------------------------------------------------------------------------------

Dipole Moment Calculation                       ... on
Quadrupole Moment Calculation                   ... off
Polarizability Calculation                      ... off
GBWName                                         ... dsgdb9nsd_100314.gbw
Electron density file                           ... dsgdb9nsd_100314.pmp2ur

-------------
DIPOLE MOMENT
-------------
                                X             Y             Z
Electronic contribution:      1.96702      -5.81998      -2.93419
Nuclear contribution   :     -2.42939       5.89473       2.99640
                        -----------------------------------------
Total Dipole Moment    :     -0.46238       0.07475       0.06220
                        -----------------------------------------
Magnitude (a.u.)       :      0.47249
Magnitude (Debye)      :      1.20098


                           *** MP2 RELAXED DENSITY ***

------------------------------------------------------------------------------
                       ORCA ELECTRIC PROPERTIES CALCULATION
------------------------------------------------------------------------------

Dipole Moment Calculation                       ... on
Quadrupole Moment Calculation                   ... off
Polarizability Calculation                      ... off
GBWName                                         ... dsgdb9nsd_100314.gbw
Electron density file                           ... dsgdb9nsd_100314.pmp2re

-------------
DIPOLE MOMENT
-------------
                                X             Y             Z
Electronic contribution:      2.02635      -5.82450      -2.92107
Nuclear contribution   :     -2.42939       5.89473       2.99640
                        -----------------------------------------
Total Dipole Moment    :     -0.40305       0.07023       0.07533
                        -----------------------------------------
Magnitude (a.u.)       :      0.41600
Magnitude (Debye)      :      1.05738


Timings for individual modules:

Sum of individual times         ...     1222.128 sec (=  20.369 min)
GTO integral calculation        ...        0.622 sec (=   0.010 min)   0.1 %
SCF iterations                  ...      217.431 sec (=   3.624 min)  17.8 %
MP2 module                      ...     1004.075 sec (=  16.735 min)  82.2 %
                             ****ORCA TERMINATED NORMALLY****
TOTAL RUN TIME: 0 days 0 hours 20 minutes 22 seconds 646 msec
