
                                 *****************
                                 * O   R   C   A *
                                 *****************

           --- An Ab Initio, DFT and Semiempirical electronic structure package ---

                  #######################################################
                  #                        -***-                        #
                  #  Department of molecular theory and spectroscopy    #
                  #              Directorship: Frank Neese              #
                  # Max Planck Institute for Chemical Energy Conversion #
                  #                  D-45470 Muelheim/Ruhr              #
                  #                       Germany                       #
                  #                                                     #
                  #                  All rights reserved                #
                  #                        -***-                        #
                  #######################################################


                         Program Version 3.0.3 - RELEASE   -


 With contributions from (in alphabetic order):
   Ute Becker             : Parallelization
   Dmytro Bykov           : SCF Hessian
   Dmitry Ganyushin       : Spin-Orbit,Spin-Spin,Magnetic field MRCI
   Andreas Hansen         : Spin unrestricted coupled pair/coupled cluster methods
   Dimitrios Liakos       : Extrapolation schemes; parallel MDCI
   Robert Izsak           : Overlap fitted RIJCOSX, COSX-SCS-MP3
   Christian Kollmar      : KDIIS, OOCD, Brueckner-CCSD(T), CCSD density
   Simone Kossmann        : Meta GGA functionals, TD-DFT gradient, OOMP2, MP2 Hessian
   Taras Petrenko         : DFT Hessian,TD-DFT gradient, ASA and ECA modules, normal mode analysis, Resonance Raman, ABS, FL, XAS/XES, NRVS
   Christoph Reimann      : Effective Core Potentials
   Michael Roemelt        : Restricted open shell CIS
   Christoph Riplinger    : Improved optimizer, TS searches, QM/MM, DLPNO-CCSD
   Barbara Sandhoefer     : DKH picture change effects
   Igor Schapiro          : Molecular dynamics
   Kantharuban Sivalingam : CASSCF convergence, NEVPT2
   Boris Wezisla          : Elementary symmetry handling
   Frank Wennmohs         : Technical directorship


 We gratefully acknowledge several colleagues who have allowed us to
 interface, adapt or use parts of their codes:
   Stefan Grimme, W. Hujo, H. Kruse, T. Risthaus : VdW corrections, initial TS optimization,
                                                   DFT functionals, gCP
   Ed Valeev                                     : LibInt (2-el integral package), F12 methods
   Garnet Chan, S. Sharma, R. Olivares           : DMRG
   Ulf Ekstrom                                   : XCFun DFT Library
   Mihaly Kallay                                 : mrcc  (arbitrary order and MRCC methods)
   Andreas Klamt, Michael Diedenhofen            : otool_cosmo (COSMO solvation model)
   Frank Weinhold                                : gennbo (NPA and NBO analysis)
   Christopher J. Cramer and Donald G. Truhlar   : smd solvation model


 Your calculation uses the libint2 library for the computation of 2-el integrals
 For citations please refer to: http://libint.valeyev.net

 This ORCA versions uses:
   CBLAS   interface :  Fast vector & matrix operations
   LAPACKE interface :  Fast linear algebra routines
   SCALAPACK package :  Parallel linear algebra routines


Your calculation utilizes the basis: Ahlrichs-TZV
Cite in your paper:
H - Kr: A. Schaefer, H. Horn and R. Ahlrichs, J. Chem. Phys. 97, 2571 (1992).

The def2-TZV basis will be loaded
Cite in your paper:
 	F. Weigend, R. Ahlrichs, Phys. Chem. Chem. Phys. 2005, 7, 3297.

================================================================================
                                        WARNINGS
                       Please study these warnings very carefully!
================================================================================
Now building the actual basis set


INFO   : the flag for use of LIBINT has been found!

================================================================================
                                       INPUT FILE
================================================================================
NAME = dsgdb9nsd_085602.inp
|  1> ! RI-MP2 RIJK def2-TZVP def2-TZVP/C def2-TZVP/JK TIGHTSCF
|  2> % maxcore 2000
|  3> % mp2 density relaxed end
|  4> *xyz 0 1
|  5>  O        0.0085146644     1.3882396529     0.1463062037 
|  6>  C       -0.0354346812     0.0013822916    -0.0153997672 
|  7>  C       -1.4719398032    -0.5223976687    -0.1762511081 
|  8>  C       -1.5083586765    -2.0402108621    -0.3081983890 
|  9>  O       -2.4098372795    -2.7286063387     0.1219407980 
| 10>  N       -0.4077525739    -2.5905181076    -0.9245271796 
| 11>  C        0.6057870307    -1.8756160243    -1.6769976092 
| 12>  C        0.7598017865    -0.4286518607    -1.2337635746 
| 13>  O        1.4509039171     0.3565492715    -1.8409553748 
| 14>  H        0.6583491491     1.7087467956    -0.4992930720 
| 15>  H        0.4156534899    -0.5081853293     0.8562242019 
| 16>  H       -2.0838632373    -0.2423945620     0.6818635294 
| 17>  H       -1.9284065031    -0.0677258440    -1.0644385205 
| 18>  H       -0.4601876534    -3.5929706342    -1.0380241988 
| 19>  H        1.5794775474    -2.3644175502    -1.5470376337 
| 20>  H        0.4060299228    -1.8626346498    -2.7583351455 
| 21> *
| 22> 
| 23>                          ****END OF INPUT****
================================================================================

                       ****************************
                       * Single Point Calculation *
                       ****************************

---------------------------------
CARTESIAN COORDINATES (ANGSTROEM)
---------------------------------
  O      0.008515    1.388240    0.146306
  C     -0.035435    0.001382   -0.015400
  C     -1.471940   -0.522398   -0.176251
  C     -1.508359   -2.040211   -0.308198
  O     -2.409837   -2.728606    0.121941
  N     -0.407753   -2.590518   -0.924527
  C      0.605787   -1.875616   -1.676998
  C      0.759802   -0.428652   -1.233764
  O      1.450904    0.356549   -1.840955
  H      0.658349    1.708747   -0.499293
  H      0.415653   -0.508185    0.856224
  H     -2.083863   -0.242395    0.681864
  H     -1.928407   -0.067726   -1.064439
  H     -0.460188   -3.592971   -1.038024
  H      1.579478   -2.364418   -1.547038
  H      0.406030   -1.862635   -2.758335

----------------------------
CARTESIAN COORDINATES (A.U.)
----------------------------
  NO LB      ZA    FRAG    MASS        X           Y           Z
   0 O     8.0000    0    15.999          0.016090383838249          2.623392752230898          0.276478656686696
   1 C     6.0000    0    12.011         -0.066961843110808          0.002612152561220         -0.029101342534143
   2 C     6.0000    0    12.011         -2.781563113665944         -0.987188526841926         -0.333066325109150
   3 C     6.0000    0    12.011         -2.850384810308921         -3.855439784820377         -0.582410550125728
   4 O     8.0000    0    15.999         -4.553932485568842         -5.156318707424573          0.230434712771812
   5 N     7.0000    0    14.007         -0.770540695072486         -4.895369768327945         -1.747103172810627
   6 C     6.0000    0    12.011          1.144771583504345         -3.544400618321187         -3.169066208628698
   7 C     6.0000    0    12.011          1.435817292549105         -0.810034623518762         -2.331475270001722
   8 O     8.0000    0    15.999          2.741811049952583          0.673780476384134         -3.478901483142353
   9 H     1.0000    0     1.008          1.244099592299089          3.229063475899515         -0.943527166644225
  10 H     1.0000    0     1.008          0.785471262519603         -0.960331097653587          1.618029250826296
  11 H     1.0000    0     1.008         -3.937930819043553         -0.458059338531795          1.288535331274962
  12 H     1.0000    0     1.008         -3.644160165731763         -0.127983297348674         -2.011497290141322
  13 H     1.0000    0     1.008         -0.869628635137875         -6.789730505859353         -1.961581456115029
  14 H     1.0000    0     1.008          2.984779999263623         -4.468101636115003         -2.923477446562583
  15 H     1.0000    0     1.008          0.767285356269188         -3.519869375674318         -5.212498010564828

--------------------------------
INTERNAL COORDINATES (ANGSTROEM)
--------------------------------
 O      0   0   0   0.000000     0.000     0.000
 C      1   0   0   1.396944     0.000     0.000
 C      2   1   0   1.537454   112.317     0.000
 C      3   2   1   1.523973   111.758   181.774
 O      4   3   2   1.213084   123.521   146.525
 N      4   3   2   1.376239   114.703   328.451
 C      6   4   3   1.450710   126.439   346.545
 C      2   1   3   1.517149   110.970   121.012
 O      8   2   1   1.209481   121.242     8.303
 H      1   2   3   0.970468   105.779   230.580
 H      2   1   3   1.105834   110.695   239.379
 H      3   2   1   1.090510   110.762   302.357
 H      3   2   1   1.097253   109.403    60.419
 H      6   4   3   1.010219   113.928   182.249
 H      7   6   4   1.097219   109.817   146.815
 H      7   6   4   1.099710   112.888   265.407

---------------------------
INTERNAL COORDINATES (A.U.)
---------------------------
 O      0   0   0   0.000000     0.000     0.000
 C      1   0   0   2.639842     0.000     0.000
 C      2   1   0   2.905367   112.317     0.000
 C      3   2   1   2.879891   111.758   181.774
 O      4   3   2   2.292396   123.521   146.525
 N      4   3   2   2.600714   114.703   328.451
 C      6   4   3   2.741444   126.439   346.545
 C      2   1   3   2.866996   110.970   121.012
 O      8   2   1   2.285588   121.242     8.303
 H      1   2   3   1.833919   105.779   230.580
 H      2   1   3   2.089723   110.695   239.379
 H      3   2   1   2.060766   110.762   302.357
 H      3   2   1   2.073509   109.403    60.419
 H      6   4   3   1.909037   113.928   182.249
 H      7   6   4   2.073444   109.817   146.815
 H      7   6   4   2.078151   112.888   265.407

---------------------
BASIS SET INFORMATION
---------------------
There are 4 groups of distinct atoms

 Group   1 Type O   : 11s6p2d1f contracted to 5s3p2d1f pattern {62111/411/11/1}
 Group   2 Type C   : 11s6p2d1f contracted to 5s3p2d1f pattern {62111/411/11/1}
 Group   3 Type N   : 11s6p2d1f contracted to 5s3p2d1f pattern {62111/411/11/1}
 Group   4 Type H   : 5s1p contracted to 3s1p pattern {311/1}

Atom   0O    basis set group =>   1
Atom   1C    basis set group =>   2
Atom   2C    basis set group =>   2
Atom   3C    basis set group =>   2
Atom   4O    basis set group =>   1
Atom   5N    basis set group =>   3
Atom   6C    basis set group =>   2
Atom   7C    basis set group =>   2
Atom   8O    basis set group =>   1
Atom   9H    basis set group =>   4
Atom  10H    basis set group =>   4
Atom  11H    basis set group =>   4
Atom  12H    basis set group =>   4
Atom  13H    basis set group =>   4
Atom  14H    basis set group =>   4
Atom  15H    basis set group =>   4
-------------------------------
AUXILIARY BASIS SET INFORMATION
-------------------------------
There are 4 groups of distinct atoms

 Group   1 Type O   : 14s10p6d2f1g contracted to 10s8p4d2f1g pattern {5111111111/31111111/3111/11/1}
 Group   2 Type C   : 14s10p6d2f1g contracted to 10s8p5d1f1g pattern {5111111111/31111111/21111/2/1}
 Group   3 Type N   : 14s10p6d2f1g contracted to 10s8p4d2f1g pattern {5111111111/31111111/3111/11/1}
 Group   4 Type H   : 4s2p2d contracted to 2s2p2d pattern {31/11/11}

Atom   0O    basis set group =>   1
Atom   1C    basis set group =>   2
Atom   2C    basis set group =>   2
Atom   3C    basis set group =>   2
Atom   4O    basis set group =>   1
Atom   5N    basis set group =>   3
Atom   6C    basis set group =>   2
Atom   7C    basis set group =>   2
Atom   8O    basis set group =>   1
Atom   9H    basis set group =>   4
Atom  10H    basis set group =>   4
Atom  11H    basis set group =>   4
Atom  12H    basis set group =>   4
Atom  13H    basis set group =>   4
Atom  14H    basis set group =>   4
Atom  15H    basis set group =>   4
------------------------------------------------------------------------------
                           ORCA GTO INTEGRAL CALCULATION
                           -- RI-GTO INTEGRALS CHOSEN --
------------------------------------------------------------------------------

                         BASIS SET STATISTICS AND STARTUP INFO

Gaussian basis set:
 # of primitive gaussian shells          ...  222
 # of primitive gaussian functions       ...  470
 # of contracted shells                  ...  127
 # of contracted basis functions         ...  321
 Highest angular momentum                ...    3
 Maximum contraction depth               ...    6
Auxiliary gaussian basis set:
 # of primitive gaussian shells          ...  353
 # of primitive gaussian functions       ... 1013
 # of contracted shells                  ...  267
 # of contracted aux-basis functions     ...  809
 Highest angular momentum                ...    4
 Maximum contraction depth               ...    5
Ratio of auxiliary to basis functions    ...  2.52
Integral package used                  ... LIBINT
 One Electron integrals                  ... done
 Ordering auxiliary basis shells         ... done
 Integral threshhold             Thresh  ...  2.500e-11
 Primitive cut-off               TCut    ...  2.500e-12
 Pre-screening matrix                    ... done
 Shell pair data                         ... 
 Ordering of the shell pairs             ... done (   0.001 sec) 7443 of 8128 pairs
 Determination of significant pairs      ... done (   0.000 sec)
 Creation of shell pair data             ... done (   0.002 sec)
 Storage of shell pair data              ... done (   0.001 sec)
 Shell pair data done in (   0.005 sec)
 Computing two index integrals           ... done
 Cholesky decomposition of the V-matrix  ... done


Timings:
 Total evaluation time                   ...   0.354 sec (  0.006 min)
 One electron matrix time                ...   0.071 sec (  0.001 min) = 20.0%
 Schwartz matrix evaluation time         ...   0.202 sec (  0.003 min) = 57.1%
 Two index repulsion integral time       ...   0.019 sec (  0.000 min) =  5.4%
 Cholesky decomposition of V             ...   0.029 sec (  0.000 min) =  8.3%
 Three index repulsion integral time     ...   0.000 sec (  0.000 min) =  0.0%

-------------------------------------------------------------------------------
                                 ORCA SCF
-------------------------------------------------------------------------------

------------
SCF SETTINGS
------------
Hamiltonian:
 Ab initio Hamiltonian  Method          .... Hartree-Fock(GTOs)
 RI-approximation to the Coulomb term is turned on
   Number of auxiliary basis functions  .... 809
   RI-JK (J+K treated both via RI)      .... on


General Settings:
 Integral files         IntName         .... dsgdb9nsd_085602
 Hartree-Fock type      HFTyp           .... RHF
 Total Charge           Charge          ....    0
 Multiplicity           Mult            ....    1
 Number of Electrons    NEL             ....   68
 Basis Dimension        Dim             ....  321
 Nuclear Repulsion      ENuc            ....    460.9561771743 Eh

Convergence Acceleration:
 DIIS                   CNVDIIS         .... on
   Start iteration      DIISMaxIt       ....    12
   Startup error        DIISStart       ....  0.200000
   # of expansion vecs  DIISMaxEq       ....     5
   Bias factor          DIISBfac        ....   1.050
   Max. coefficient     DIISMaxC        ....  10.000
 Newton-Raphson         CNVNR           .... off
 SOSCF                  CNVSOSCF        .... on
   Start iteration      SOSCFMaxIt      ....   150
   Startup grad/error   SOSCFStart      ....  0.003300
 Level Shifting         CNVShift        .... on
   Level shift para.    LevelShift      ....    0.2500
   Turn off err/grad.   ShiftErr        ....    0.0010
 Zerner damping         CNVZerner       .... off
 Static damping         CNVDamp         .... on
   Fraction old density DampFac         ....    0.7000
   Max. Damping (<1)    DampMax         ....    0.9800
   Min. Damping (>=0)   DampMin         ....    0.0000
   Turn off err/grad.   DampErr         ....    0.1000
 Fernandez-Rico         CNVRico         .... off

SCF Procedure:
 Maximum # iterations   MaxIter         ....   125
 SCF integral mode      SCFMode         .... Direct
   Integral package                     .... LIBINT
 Reset frequeny         DirectResetFreq ....    20
 Integral Threshold     Thresh          ....  2.500e-11 Eh
 Primitive CutOff       TCut            ....  2.500e-12 Eh

Convergence Tolerance:
 Convergence Check Mode ConvCheckMode   .... Total+1el-Energy
 Energy Change          TolE            ....  1.000e-08 Eh
 1-El. energy change                    ....  1.000e-05 Eh
 Orbital Gradient       TolG            ....  1.000e-05
 Orbital Rotation angle TolX            ....  1.000e-05
 DIIS Error             TolErr          ....  5.000e-07


Diagonalization of the overlap matrix:
Smallest eigenvalue                        ... 1.359e-04
Time for diagonalization                   ...    0.029 sec
Threshold for overlap eigenvalues          ... 1.000e-08
Number of eigenvalues below threshold      ... 0
Time for construction of square roots      ...    0.015 sec
Total time needed                          ...    0.044 sec

-------------------
DFT GRID GENERATION
-------------------

General Integration Accuracy     IntAcc      ...  4.340
Radial Grid Type                 RadialGrid  ... Gauss-Chebyshev
Angular Grid (max. acc.)         AngularGrid ... Lebedev-110
Angular grid pruning method      GridPruning ... 3 (G Style)
Weight generation scheme         WeightScheme... Becke
Basis function cutoff            BFCut       ...    1.0000e-11
Integration weight cutoff        WCut        ...    1.0000e-14
Grids for H and He will be reduced by one unit

# of grid points (after initial pruning)     ...  20688 (   0.0 sec)
# of grid points (after weights+screening)   ...  19145 (   0.1 sec)
nearest neighbour list constructed           ...    0.0 sec
Grid point re-assignment to atoms done       ...    0.0 sec
Grid point division into batches done        ...    0.0 sec
Reduced shell lists constructed in    1.1 sec

Total number of grid points                  ...    19145
Total number of batches                      ...      306
Average number of points per batch           ...       62
Average number of grid points per atom       ...     1197
Average number of shells per batch           ...    86.17 (67.85%)
Average number of basis functions per batch  ...   222.59 (69.34%)
Average number of large shells per batch     ...    67.95 (78.85%)
Average number of large basis fcns per batch ...   173.04 (77.74%)
Average number of aux-shells per batch       ...    86.17 (32.27%)
Average number of aux functions per batch    ...   222.59 (  inf%)
Maximum spatial batch extension              ...  20.12, 20.48, 23.27 au
Average spatial batch extension              ...   3.79,  3.57,  3.92 au

Time for grid setup =    1.180 sec

------------------------------
INITIAL GUESS: MODEL POTENTIAL
------------------------------
Loading Hartree-Fock densities                     ... done
Calculating cut-offs                               ... done
Setting up the integral package                    ... done
Initializing the effective Hamiltonian             ... done
Starting the Coulomb interaction                   ... done (   0.6 sec)
Reading the grid                                   ... done
Mapping shells                                     ... done
Starting the XC term evaluation                    ... done (   0.6 sec)
Transforming the Hamiltonian                       ... done (   0.0 sec)
Diagonalizing the Hamiltonian                      ... done (   0.0 sec)
Back transforming the eigenvectors                 ... done (   0.0 sec)
Now organizing SCF variables                       ... done
                      ------------------
                      INITIAL GUESS DONE (   2.5 sec)
                      ------------------
--------------
SCF ITERATIONS
--------------
ITER       Energy         Delta-E        Max-DP      RMS-DP      [F,P]     Damp
  0   -472.2664865334   0.000000000000 0.11112361  0.00099525  0.2883172 0.7000
  1   -472.0392008643   0.227285669104 0.16927160  0.00119437  0.2783018 0.7000
                               ***Turning on DIIS***
  2   -472.0772114474  -0.038010583116 0.11408355  0.00083250  0.1883744 0.7000
  3   -472.9536823663  -0.876470918898 0.01270714  0.00031184  0.1352586 0.7000
  4   -472.4926664221   0.461015944235 0.15156623  0.00100449  0.0875083 0.0000
  5   -472.6570613737  -0.164394951624 0.03045502  0.00029795  0.0277476 0.0000
  6   -472.5809442311   0.076117142658 0.01611485  0.00013232  0.0096126 0.0000
  7   -472.5889928394  -0.008048608333 0.00722098  0.00006593  0.0066846 0.0000
  8   -472.6029117735  -0.013918934142 0.00506009  0.00005427  0.0052140 0.0000
                      *** Initiating the SOSCF procedure ***
                           *** Shutting down DIIS ***
                      *** Re-Reading the Fockian *** 
                      *** Removing any level shift *** 
ITER      Energy       Delta-E        Grad      Rot      Max-DP    RMS-DP
  9   -472.65111783  -0.0482060586  0.000509  0.000509  0.000606  0.000018
 10   -472.65231515  -0.0011973225  0.000223  0.000356  0.000208  0.000006
 11   -472.65231709  -0.0000019373  0.000111  0.000454  0.000379  0.000009
 12   -472.65231798  -0.0000008877  0.000015  0.000025  0.000196  0.000002
 13   -472.65231801  -0.0000000340  0.000008  0.000015  0.000059  0.000001
                  ***Gradient check signals convergence***
              ***Rediagonalizing the Fockian in SOSCF/NRSCF***

               *****************************************************
               *                     SUCCESS                       *
               *           SCF CONVERGED AFTER  14 CYCLES          *
               *****************************************************


----------------
TOTAL SCF ENERGY
----------------

Total Energy       :         -472.65231802 Eh          -12861.52344 eV

Components:
Nuclear Repulsion  :          460.95617717 Eh           12543.25527 eV
Electronic Energy  :         -933.60849519 Eh          -25404.77871 eV

One Electron Energy:        -1560.50155527 Eh          -42463.40612 eV
Two Electron Energy:          626.89306008 Eh           17058.62741 eV

Virial components:
Potential Energy   :         -944.69032747 Eh          -25706.33070 eV
Kinetic Energy     :          472.03800945 Eh           12844.80725 eV
Virial Ratio       :            2.00130140


---------------
SCF CONVERGENCE
---------------

  Last Energy change         ...   -3.5042e-09  Tolerance :   1.0000e-08
  Last MAX-Density change    ...    7.4893e-06  Tolerance :   1.0000e-07
  Last RMS-Density change    ...    1.5751e-07  Tolerance :   5.0000e-09
  Last Orbital Gradient      ...    2.4592e-06  Tolerance :   1.0000e-05
  Last Orbital Rotation      ...    5.2289e-06  Tolerance :   1.0000e-05

             **** THE GBW FILE WAS UPDATED (dsgdb9nsd_085602.gbw) ****
             **** DENSITY FILE WAS UPDATED (dsgdb9nsd_085602.scfp.tmp) ****
             **** ENERGY FILE WAS UPDATED (dsgdb9nsd_085602.en.tmp) ****
----------------
ORBITAL ENERGIES
----------------

  NO   OCC          E(Eh)            E(eV) 
   0   2.0000     -20.585563      -560.1616 
   1   2.0000     -20.574776      -559.8681 
   2   2.0000     -20.533422      -558.7428 
   3   2.0000     -15.606921      -424.6859 
   4   2.0000     -11.369176      -309.3710 
   5   2.0000     -11.366478      -309.2976 
   6   2.0000     -11.319492      -308.0190 
   7   2.0000     -11.312347      -307.8246 
   8   2.0000     -11.261173      -306.4321 
   9   2.0000      -1.438408       -39.1411 
  10   2.0000      -1.400047       -38.0972 
  11   2.0000      -1.382146       -37.6101 
  12   2.0000      -1.260845       -34.3093 
  13   2.0000      -1.082472       -29.4556 
  14   2.0000      -1.026462       -27.9314 
  15   2.0000      -0.919178       -25.0121 
  16   2.0000      -0.839861       -22.8538 
  17   2.0000      -0.766979       -20.8706 
  18   2.0000      -0.741973       -20.1901 
  19   2.0000      -0.710150       -19.3242 
  20   2.0000      -0.688267       -18.7287 
  21   2.0000      -0.678451       -18.4616 
  22   2.0000      -0.650723       -17.7071 
  23   2.0000      -0.636373       -17.3166 
  24   2.0000      -0.620310       -16.8795 
  25   2.0000      -0.596762       -16.2387 
  26   2.0000      -0.586046       -15.9471 
  27   2.0000      -0.555860       -15.1257 
  28   2.0000      -0.545527       -14.8445 
  29   2.0000      -0.527519       -14.3545 
  30   2.0000      -0.476052       -12.9540 
  31   2.0000      -0.448323       -12.1995 
  32   2.0000      -0.435934       -11.8624 
  33   2.0000      -0.413688       -11.2570 
  34   0.0000       0.099888         2.7181 
  35   0.0000       0.119323         3.2469 
  36   0.0000       0.152605         4.1526 
  37   0.0000       0.157431         4.2839 
  38   0.0000       0.161531         4.3955 
  39   0.0000       0.174207         4.7404 
  40   0.0000       0.182770         4.9734 
  41   0.0000       0.208482         5.6731 
  42   0.0000       0.217974         5.9314 
  43   0.0000       0.248639         6.7658 
  44   0.0000       0.253244         6.8911 
  45   0.0000       0.268355         7.3023 
  46   0.0000       0.291400         7.9294 
  47   0.0000       0.305765         8.3203 
  48   0.0000       0.316661         8.6168 
  49   0.0000       0.329760         8.9732 
  50   0.0000       0.348586         9.4855 
  51   0.0000       0.358231         9.7480 
  52   0.0000       0.387186        10.5359 
  53   0.0000       0.409589        11.1455 
  54   0.0000       0.413734        11.2583 
  55   0.0000       0.429736        11.6937 
  56   0.0000       0.450921        12.2702 
  57   0.0000       0.462656        12.5895 
  58   0.0000       0.469461        12.7747 
  59   0.0000       0.484377        13.1806 
  60   0.0000       0.488700        13.2982 
  61   0.0000       0.508292        13.8313 
  62   0.0000       0.524066        14.2606 
  63   0.0000       0.531692        14.4681 
  64   0.0000       0.532057        14.4780 
  65   0.0000       0.540571        14.7097 
  66   0.0000       0.554946        15.1008 
  67   0.0000       0.561377        15.2758 
  68   0.0000       0.574410        15.6305 
  69   0.0000       0.583735        15.8842 
  70   0.0000       0.594432        16.1753 
  71   0.0000       0.615057        16.7366 
  72   0.0000       0.625973        17.0336 
  73   0.0000       0.638485        17.3741 
  74   0.0000       0.641038        17.4435 
  75   0.0000       0.657372        17.8880 
  76   0.0000       0.677425        18.4337 
  77   0.0000       0.697687        18.9850 
  78   0.0000       0.715162        19.4605 
  79   0.0000       0.730372        19.8744 
  80   0.0000       0.732270        19.9261 
  81   0.0000       0.756452        20.5841 
  82   0.0000       0.759871        20.6771 
  83   0.0000       0.774255        21.0685 
  84   0.0000       0.788491        21.4559 
  85   0.0000       0.809811        22.0361 
  86   0.0000       0.824096        22.4248 
  87   0.0000       0.848283        23.0830 
  88   0.0000       0.871082        23.7033 
  89   0.0000       0.889175        24.1957 
  90   0.0000       0.897934        24.4340 
  91   0.0000       0.914323        24.8800 
  92   0.0000       0.947398        25.7800 
  93   0.0000       0.981736        26.7144 
  94   0.0000       1.020482        27.7687 
  95   0.0000       1.025843        27.9146 
  96   0.0000       1.044603        28.4251 
  97   0.0000       1.059665        28.8350 
  98   0.0000       1.083887        29.4941 
  99   0.0000       1.087261        29.5859 
 100   0.0000       1.097234        29.8573 
 101   0.0000       1.137943        30.9650 
 102   0.0000       1.160281        31.5728 
 103   0.0000       1.179117        32.0854 
 104   0.0000       1.199751        32.6469 
 105   0.0000       1.220797        33.2196 
 106   0.0000       1.230879        33.4939 
 107   0.0000       1.281050        34.8591 
 108   0.0000       1.294593        35.2277 
 109   0.0000       1.304860        35.5070 
 110   0.0000       1.337429        36.3933 
 111   0.0000       1.360703        37.0266 
 112   0.0000       1.391268        37.8583 
 113   0.0000       1.415130        38.5076 
 114   0.0000       1.451774        39.5048 
 115   0.0000       1.493120        40.6299 
 116   0.0000       1.525350        41.5069 
 117   0.0000       1.534981        41.7690 
 118   0.0000       1.554907        42.3112 
 119   0.0000       1.561896        42.5014 
 120   0.0000       1.607527        43.7430 
 121   0.0000       1.640306        44.6350 
 122   0.0000       1.675725        45.5988 
 123   0.0000       1.682924        45.7947 
 124   0.0000       1.712203        46.5914 
 125   0.0000       1.735241        47.2183 
 126   0.0000       1.759608        47.8814 
 127   0.0000       1.762914        47.9713 
 128   0.0000       1.797905        48.9235 
 129   0.0000       1.804371        49.0994 
 130   0.0000       1.814553        49.3765 
 131   0.0000       1.833290        49.8864 
 132   0.0000       1.842179        50.1282 
 133   0.0000       1.871165        50.9170 
 134   0.0000       1.880612        51.1740 
 135   0.0000       1.894090        51.5408 
 136   0.0000       1.915510        52.1237 
 137   0.0000       1.930874        52.5417 
 138   0.0000       1.970864        53.6299 
 139   0.0000       1.980606        53.8950 
 140   0.0000       1.992731        54.2250 
 141   0.0000       2.049884        55.7802 
 142   0.0000       2.073659        56.4271 
 143   0.0000       2.091058        56.9006 
 144   0.0000       2.139010        58.2054 
 145   0.0000       2.142615        58.3035 
 146   0.0000       2.157256        58.7019 
 147   0.0000       2.167076        58.9691 
 148   0.0000       2.190606        59.6094 
 149   0.0000       2.227890        60.6240 
 150   0.0000       2.239728        60.9461 
 151   0.0000       2.252315        61.2886 
 152   0.0000       2.303922        62.6929 
 153   0.0000       2.317817        63.0710 
 154   0.0000       2.337421        63.6045 
 155   0.0000       2.377638        64.6988 
 156   0.0000       2.406391        65.4812 
 157   0.0000       2.417443        65.7820 
 158   0.0000       2.420566        65.8669 
 159   0.0000       2.457081        66.8606 
 160   0.0000       2.475626        67.3652 
 161   0.0000       2.527964        68.7894 
 162   0.0000       2.562324        69.7244 
 163   0.0000       2.566783        69.8457 
 164   0.0000       2.601221        70.7828 
 165   0.0000       2.606078        70.9150 
 166   0.0000       2.622965        71.3745 
 167   0.0000       2.643108        71.9226 
 168   0.0000       2.666528        72.5599 
 169   0.0000       2.684466        73.0480 
 170   0.0000       2.702492        73.5385 
 171   0.0000       2.714422        73.8632 
 172   0.0000       2.758036        75.0500 
 173   0.0000       2.772122        75.4333 
 174   0.0000       2.788332        75.8744 
 175   0.0000       2.795113        76.0589 
 176   0.0000       2.832381        77.0730 
 177   0.0000       2.857267        77.7502 
 178   0.0000       2.868290        78.0501 
 179   0.0000       2.909508        79.1717 
 180   0.0000       2.912398        79.2504 
 181   0.0000       2.937790        79.9413 
 182   0.0000       2.967122        80.7395 
 183   0.0000       2.983007        81.1717 
 184   0.0000       2.998419        81.5911 
 185   0.0000       3.068646        83.5021 
 186   0.0000       3.085157        83.9514 
 187   0.0000       3.101707        84.4017 
 188   0.0000       3.119154        84.8765 
 189   0.0000       3.140315        85.4523 
 190   0.0000       3.174650        86.3866 
 191   0.0000       3.190084        86.8066 
 192   0.0000       3.210630        87.3657 
 193   0.0000       3.246874        88.3519 
 194   0.0000       3.256830        88.6228 
 195   0.0000       3.266153        88.8765 
 196   0.0000       3.279467        89.2388 
 197   0.0000       3.315081        90.2079 
 198   0.0000       3.325336        90.4870 
 199   0.0000       3.344518        91.0090 
 200   0.0000       3.369914        91.7000 
 201   0.0000       3.377598        91.9091 
 202   0.0000       3.390793        92.2682 
 203   0.0000       3.407513        92.7231 
 204   0.0000       3.427248        93.2602 
 205   0.0000       3.456646        94.0601 
 206   0.0000       3.480517        94.7097 
 207   0.0000       3.493612        95.0660 
 208   0.0000       3.521252        95.8181 
 209   0.0000       3.523594        95.8819 
 210   0.0000       3.528844        96.0247 
 211   0.0000       3.544547        96.4520 
 212   0.0000       3.558160        96.8225 
 213   0.0000       3.580418        97.4281 
 214   0.0000       3.605576        98.1127 
 215   0.0000       3.635647        98.9310 
 216   0.0000       3.652312        99.3845 
 217   0.0000       3.662745        99.6684 
 218   0.0000       3.685206       100.2795 
 219   0.0000       3.714575       101.0787 
 220   0.0000       3.739050       101.7447 
 221   0.0000       3.752282       102.1048 
 222   0.0000       3.757861       102.2566 
 223   0.0000       3.785285       103.0028 
 224   0.0000       3.792153       103.1897 
 225   0.0000       3.826686       104.1294 
 226   0.0000       3.855656       104.9177 
 227   0.0000       3.877015       105.4990 
 228   0.0000       3.898589       106.0860 
 229   0.0000       3.914467       106.5181 
 230   0.0000       3.948718       107.4501 
 231   0.0000       3.962557       107.8267 
 232   0.0000       3.969551       108.0170 
 233   0.0000       4.057301       110.4048 
 234   0.0000       4.066881       110.6655 
 235   0.0000       4.087612       111.2296 
 236   0.0000       4.123485       112.2057 
 237   0.0000       4.146273       112.8258 
 238   0.0000       4.190640       114.0331 
 239   0.0000       4.237696       115.3136 
 240   0.0000       4.270914       116.2175 
 241   0.0000       4.290471       116.7496 
 242   0.0000       4.297665       116.9454 
 243   0.0000       4.364345       118.7599 
 244   0.0000       4.412054       120.0581 
 245   0.0000       4.422911       120.3535 
 246   0.0000       4.445167       120.9591 
 247   0.0000       4.474123       121.7471 
 248   0.0000       4.530158       123.2719 
 249   0.0000       4.575410       124.5032 
 250   0.0000       4.613098       125.5288 
 251   0.0000       4.631357       126.0256 
 252   0.0000       4.654121       126.6451 
 253   0.0000       4.740911       129.0068 
 254   0.0000       4.778963       130.0422 
 255   0.0000       4.832608       131.5019 
 256   0.0000       4.867484       132.4510 
 257   0.0000       4.931982       134.2060 
 258   0.0000       4.945111       134.5633 
 259   0.0000       4.978814       135.4804 
 260   0.0000       5.057593       137.6241 
 261   0.0000       5.122491       139.3901 
 262   0.0000       5.148588       140.1002 
 263   0.0000       5.174491       140.8051 
 264   0.0000       5.244703       142.7156 
 265   0.0000       5.279423       143.6604 
 266   0.0000       5.312998       144.5740 
 267   0.0000       5.435468       147.9066 
 268   0.0000       5.463173       148.6605 
 269   0.0000       5.520766       150.2277 
 270   0.0000       5.615995       152.8190 
 271   0.0000       5.622967       153.0087 
 272   0.0000       5.628260       153.1527 
 273   0.0000       5.643136       153.5575 
 274   0.0000       5.693721       154.9340 
 275   0.0000       5.717961       155.5936 
 276   0.0000       5.741994       156.2476 
 277   0.0000       5.758714       156.7026 
 278   0.0000       5.830865       158.6659 
 279   0.0000       5.910800       160.8411 
 280   0.0000       5.934559       161.4876 
 281   0.0000       5.963192       162.2667 
 282   0.0000       6.037251       164.2820 
 283   0.0000       6.112844       166.3389 
 284   0.0000       6.150323       167.3588 
 285   0.0000       6.224441       169.3757 
 286   0.0000       6.240833       169.8217 
 287   0.0000       6.266126       170.5100 
 288   0.0000       6.393349       173.9719 
 289   0.0000       6.439570       175.2296 
 290   0.0000       6.594728       179.4517 
 291   0.0000       6.632606       180.4824 
 292   0.0000       6.725537       183.0112 
 293   0.0000       6.853609       186.4962 
 294   0.0000       6.872835       187.0193 
 295   0.0000       6.883281       187.3036 
 296   0.0000       6.925802       188.4607 
 297   0.0000       6.981304       189.9709 
 298   0.0000       7.044228       191.6832 
 299   0.0000       7.054856       191.9724 
 300   0.0000       7.082662       192.7290 
 301   0.0000       7.221681       196.5119 
 302   0.0000       7.268208       197.7780 
 303   0.0000       7.311512       198.9563 
 304   0.0000       7.341945       199.7845 
 305   0.0000       7.353705       200.1045 
 306   0.0000       7.477696       203.4785 
 307   0.0000       7.529166       204.8790 
 308   0.0000       7.574891       206.1233 
 309   0.0000       7.600864       206.8300 
 310   0.0000       7.619550       207.3385 
 311   0.0000       7.707172       209.7228 
 312   0.0000      23.543416       640.6489 
 313   0.0000      23.584228       641.7595 
 314   0.0000      23.707801       645.1221 
 315   0.0000      24.160473       657.4399 
 316   0.0000      24.418779       664.4688 
 317   0.0000      33.797995       919.6902 
 318   0.0000      45.414112      1235.7808 
 319   0.0000      45.501563      1238.1605 
 320   0.0000      45.648762      1242.1660 

                    ********************************
                    * MULLIKEN POPULATION ANALYSIS *
                    ********************************

-----------------------
MULLIKEN ATOMIC CHARGES
-----------------------
   0 O :   -0.543401
   1 C :    0.187734
   2 C :   -0.121582
   3 C :    0.343191
   4 O :   -0.480909
   5 N :   -0.400614
   6 C :   -0.040120
   7 C :    0.248849
   8 O :   -0.457040
   9 H :    0.365147
  10 H :    0.096554
  11 H :    0.147167
  12 H :    0.122098
  13 H :    0.255314
  14 H :    0.140931
  15 H :    0.136678
Sum of atomic charges:    0.0000000

--------------------------------
MULLIKEN REDUCED ORBITAL CHARGES
--------------------------------
  0 O s       :     3.794777  s :     3.794777
      pz      :     1.705035  p :     4.712759
      px      :     1.694325
      py      :     1.313399
      dz2     :     0.004699  d :     0.034029
      dxz     :     0.007478
      dyz     :     0.006117
      dx2y2   :     0.011405
      dxy     :     0.004330
      f0      :     0.000172  f :     0.001836
      f+1     :     0.000249
      f-1     :     0.000237
      f+2     :     0.000286
      f-2     :     0.000268
      f+3     :     0.000200
      f-3     :     0.000423
  1 C s       :     3.052194  s :     3.052194
      pz      :     0.914917  p :     2.565749
      px      :     0.949926
      py      :     0.700906
      dz2     :     0.016912  d :     0.180859
      dxz     :     0.029437
      dyz     :     0.049081
      dx2y2   :     0.029706
      dxy     :     0.055722
      f0      :     0.001475  f :     0.013464
      f+1     :     0.001480
      f-1     :     0.001611
      f+2     :     0.002389
      f-2     :     0.000940
      f+3     :     0.003506
      f-3     :     0.002063
  2 C s       :     3.060759  s :     3.060759
      pz      :     1.101429  p :     2.968462
      px      :     0.959089
      py      :     0.907943
      dz2     :     0.015710  d :     0.086267
      dxz     :     0.020988
      dyz     :     0.009598
      dx2y2   :     0.026399
      dxy     :     0.013571
      f0      :     0.000449  f :     0.006094
      f+1     :     0.001144
      f-1     :     0.000815
      f+2     :     0.000707
      f-2     :     0.000275
      f+3     :     0.001184
      f-3     :     0.001521
  3 C s       :     3.072558  s :     3.072558
      pz      :     0.665592  p :     2.282010
      px      :     0.705657
      py      :     0.910761
      dz2     :     0.044706  d :     0.278773
      dxz     :     0.049979
      dyz     :     0.029385
      dx2y2   :     0.111204
      dxy     :     0.043497
      f0      :     0.001295  f :     0.023468
      f+1     :     0.003705
      f-1     :     0.002363
      f+2     :     0.003134
      f-2     :     0.003290
      f+3     :     0.005990
      f-3     :     0.003692
  4 O s       :     3.836747  s :     3.836747
      pz      :     1.489334  p :     4.605454
      px      :     1.462090
      py      :     1.654030
      dz2     :     0.005279  d :     0.036508
      dxz     :     0.007389
      dyz     :     0.005674
      dx2y2   :     0.008054
      dxy     :     0.010113
      f0      :     0.000159  f :     0.002200
      f+1     :     0.000278
      f-1     :     0.000187
      f+2     :     0.000175
      f-2     :     0.000470
      f+3     :     0.000422
      f-3     :     0.000509
  5 N s       :     3.438235  s :     3.438235
      pz      :     1.524563  p :     3.896903
      px      :     1.258145
      py      :     1.114195
      dz2     :     0.008581  d :     0.060809
      dxz     :     0.010707
      dyz     :     0.007724
      dx2y2   :     0.018549
      dxy     :     0.015248
      f0      :     0.000650  f :     0.004666
      f+1     :     0.000788
      f-1     :     0.000504
      f+2     :     0.000666
      f-2     :     0.000793
      f+3     :     0.000459
      f-3     :     0.000806
  6 C s       :     3.134465  s :     3.134465
      pz      :     0.972133  p :     2.776293
      px      :     0.918206
      py      :     0.885954
      dz2     :     0.040450  d :     0.120399
      dxz     :     0.012899
      dyz     :     0.018124
      dx2y2   :     0.027651
      dxy     :     0.021276
      f0      :     0.001315  f :     0.008962
      f+1     :     0.001607
      f-1     :     0.000944
      f+2     :     0.001236
      f-2     :     0.001053
      f+3     :     0.000981
      f-3     :     0.001826
  7 C s       :     3.158570  s :     3.158570
      pz      :     0.791916  p :     2.341219
      px      :     0.715642
      py      :     0.833661
      dz2     :     0.058617  d :     0.232252
      dxz     :     0.035597
      dyz     :     0.035437
      dx2y2   :     0.068158
      dxy     :     0.034442
      f0      :     0.001626  f :     0.019110
      f+1     :     0.002461
      f-1     :     0.003492
      f+2     :     0.003629
      f-2     :     0.002348
      f+3     :     0.002846
      f-3     :     0.002708
  8 O s       :     3.854110  s :     3.854110
      pz      :     1.573386  p :     4.563386
      px      :     1.394880
      py      :     1.595120
      dz2     :     0.006718  d :     0.037420
      dxz     :     0.005422
      dyz     :     0.008622
      dx2y2   :     0.008321
      dxy     :     0.008336
      f0      :     0.000178  f :     0.002124
      f+1     :     0.000199
      f-1     :     0.000360
      f+2     :     0.000308
      f-2     :     0.000445
      f+3     :     0.000280
      f-3     :     0.000354
  9 H s       :     0.588049  s :     0.588049
      pz      :     0.018449  p :     0.046803
      px      :     0.018125
      py      :     0.010229
 10 H s       :     0.881303  s :     0.881303
      pz      :     0.011758  p :     0.022143
      px      :     0.005574
      py      :     0.004811
 11 H s       :     0.829867  s :     0.829867
      pz      :     0.010880  p :     0.022966
      px      :     0.007901
      py      :     0.004185
 12 H s       :     0.855111  s :     0.855111
      pz      :     0.010651  p :     0.022791
      px      :     0.006139
      py      :     0.006001
 13 H s       :     0.706859  s :     0.706859
      pz      :     0.009596  p :     0.037827
      px      :     0.006665
      py      :     0.021566
 14 H s       :     0.836562  s :     0.836562
      pz      :     0.003482  p :     0.022506
      px      :     0.013246
      py      :     0.005778
 15 H s       :     0.841089  s :     0.841089
      pz      :     0.015686  p :     0.022233
      px      :     0.003250
      py      :     0.003298


                     *******************************
                     * LOEWDIN POPULATION ANALYSIS *
                     *******************************

----------------------
LOEWDIN ATOMIC CHARGES
----------------------
   0 O :   -0.022329
   1 C :   -0.294103
   2 C :   -0.157252
   3 C :   -0.379145
   4 O :    0.018398
   5 N :    0.089474
   6 C :   -0.208711
   7 C :   -0.248829
   8 O :    0.073880
   9 H :    0.194075
  10 H :    0.151430
  11 H :    0.153606
  12 H :    0.150789
  13 H :    0.190480
  14 H :    0.146796
  15 H :    0.141439

-------------------------------
LOEWDIN REDUCED ORBITAL CHARGES
-------------------------------
  0 O s       :     3.348031  s :     3.348031
      pz      :     1.627500  p :     4.601484
      px      :     1.610671
      py      :     1.363313
      dz2     :     0.006754  d :     0.068297
      dxz     :     0.009080
      dyz     :     0.017090
      dx2y2   :     0.020211
      dxy     :     0.015162
      f0      :     0.000357  f :     0.004516
      f+1     :     0.000389
      f-1     :     0.000574
      f+2     :     0.001020
      f-2     :     0.000454
      f+3     :     0.000868
      f-3     :     0.000854
  1 C s       :     2.736438  s :     2.736438
      pz      :     0.992738  p :     2.814538
      px      :     0.999767
      py      :     0.822032
      dz2     :     0.080508  d :     0.653981
      dxz     :     0.105530
      dyz     :     0.156848
      dx2y2   :     0.151413
      dxy     :     0.159683
      f0      :     0.010575  f :     0.089146
      f+1     :     0.007120
      f-1     :     0.011087
      f+2     :     0.015432
      f-2     :     0.007965
      f+3     :     0.022336
      f-3     :     0.014631
  2 C s       :     2.773666  s :     2.773666
      pz      :     1.030162  p :     3.001412
      px      :     0.989036
      py      :     0.982214
      dz2     :     0.048454  d :     0.347299
      dxz     :     0.088969
      dyz     :     0.046038
      dx2y2   :     0.095437
      dxy     :     0.068401
      f0      :     0.003412  f :     0.034875
      f+1     :     0.004274
      f-1     :     0.004111
      f+2     :     0.004408
      f-2     :     0.004084
      f+3     :     0.007657
      f-3     :     0.006929
  3 C s       :     2.740271  s :     2.740271
      pz      :     0.713072  p :     2.581581
      px      :     0.872337
      py      :     0.996172
      dz2     :     0.135014  d :     0.919465
      dxz     :     0.162729
      dyz     :     0.119091
      dx2y2   :     0.293386
      dxy     :     0.209245
      f0      :     0.008531  f :     0.137828
      f+1     :     0.015107
      f-1     :     0.013681
      f+2     :     0.019643
      f-2     :     0.020207
      f+3     :     0.039506
      f-3     :     0.021152
  4 O s       :     3.402937  s :     3.402937
      pz      :     1.419265  p :     4.506395
      px      :     1.487192
      py      :     1.599938
      dz2     :     0.007771  d :     0.066643
      dxz     :     0.013289
      dyz     :     0.008007
      dx2y2   :     0.015785
      dxy     :     0.021791
      f0      :     0.000498  f :     0.005627
      f+1     :     0.000540
      f-1     :     0.000327
      f+2     :     0.000581
      f-2     :     0.001136
      f+3     :     0.001288
      f-3     :     0.001257
  5 N s       :     2.930071  s :     2.930071
      pz      :     1.390236  p :     3.762698
      px      :     1.254740
      py      :     1.117722
      dz2     :     0.029187  d :     0.204135
      dxz     :     0.035651
      dyz     :     0.024666
      dx2y2   :     0.068936
      dxy     :     0.045696
      f0      :     0.001465  f :     0.013621
      f+1     :     0.002044
      f-1     :     0.001346
      f+2     :     0.002162
      f-2     :     0.001831
      f+3     :     0.002747
      f-3     :     0.002026
  6 C s       :     2.773993  s :     2.773993
      pz      :     0.996210  p :     2.932370
      px      :     0.953938
      py      :     0.982222
      dz2     :     0.140129  d :     0.449887
      dxz     :     0.049743
      dyz     :     0.071052
      dx2y2   :     0.097703
      dxy     :     0.091260
      f0      :     0.004969  f :     0.052460
      f+1     :     0.008576
      f-1     :     0.006407
      f+2     :     0.008838
      f-2     :     0.007823
      f+3     :     0.006245
      f-3     :     0.009601
  7 C s       :     2.762865  s :     2.762865
      pz      :     0.874285  p :     2.597920
      px      :     0.755105
      py      :     0.968531
      dz2     :     0.168548  d :     0.774940
      dxz     :     0.129846
      dyz     :     0.149220
      dx2y2   :     0.185687
      dxy     :     0.141638
      f0      :     0.009866  f :     0.113105
      f+1     :     0.013170
      f-1     :     0.022587
      f+2     :     0.019064
      f-2     :     0.015371
      f+3     :     0.019626
      f-3     :     0.013422
  8 O s       :     3.396970  s :     3.396970
      pz      :     1.506034  p :     4.452806
      px      :     1.380462
      py      :     1.566311
      dz2     :     0.011310  d :     0.070517
      dxz     :     0.013884
      dyz     :     0.014725
      dx2y2   :     0.014077
      dxy     :     0.016522
      f0      :     0.000535  f :     0.005826
      f+1     :     0.000657
      f-1     :     0.000802
      f+2     :     0.000732
      f-2     :     0.001400
      f+3     :     0.001029
      f-3     :     0.000671
  9 H s       :     0.645060  s :     0.645060
      pz      :     0.066541  p :     0.160865
      px      :     0.065176
      py      :     0.029148
 10 H s       :     0.793759  s :     0.793759
      pz      :     0.026457  p :     0.054810
      px      :     0.015596
      py      :     0.012757
 11 H s       :     0.786179  s :     0.786179
      pz      :     0.028111  p :     0.060215
      px      :     0.019858
      py      :     0.012246
 12 H s       :     0.789791  s :     0.789791
      pz      :     0.027525  p :     0.059419
      px      :     0.016186
      py      :     0.015709
 13 H s       :     0.701100  s :     0.701100
      pz      :     0.029025  p :     0.108419
      px      :     0.020592
      py      :     0.058803
 14 H s       :     0.794391  s :     0.794391
      pz      :     0.011667  p :     0.058813
      px      :     0.031661
      py      :     0.015485
 15 H s       :     0.799819  s :     0.799819
      pz      :     0.037245  p :     0.058742
      px      :     0.010645
      py      :     0.010852


                      *****************************
                      * MAYER POPULATION ANALYSIS *
                      *****************************

  NA   - Mulliken gross atomic population
  ZA   - Total nuclear charge
  QA   - Mulliken gross atomic charge
  VA   - Mayer's total valence
  BVA  - Mayer's bonded valence
  FA   - Mayer's free valence

  ATOM       NA         ZA         QA         VA         BVA        FA
  0 O      8.5434     8.0000    -0.5434     1.8632     1.8632    -0.0000
  1 C      5.8123     6.0000     0.1877     3.9417     3.9417     0.0000
  2 C      6.1216     6.0000    -0.1216     3.6562     3.6562     0.0000
  3 C      5.6568     6.0000     0.3432     4.2628     4.2628     0.0000
  4 O      8.4809     8.0000    -0.4809     1.9961     1.9961     0.0000
  5 N      7.4006     7.0000    -0.4006     2.9222     2.9222    -0.0000
  6 C      6.0401     6.0000    -0.0401     3.8203     3.8203    -0.0000
  7 C      5.7512     6.0000     0.2488     3.9606     3.9606     0.0000
  8 O      8.4570     8.0000    -0.4570     1.9832     1.9832     0.0000
  9 H      0.6349     1.0000     0.3651     0.8961     0.8961    -0.0000
 10 H      0.9034     1.0000     0.0966     0.9774     0.9774    -0.0000
 11 H      0.8528     1.0000     0.1472     0.9914     0.9914     0.0000
 12 H      0.8779     1.0000     0.1221     0.9944     0.9944     0.0000
 13 H      0.7447     1.0000     0.2553     0.9461     0.9461    -0.0000
 14 H      0.8591     1.0000     0.1409     0.9734     0.9734    -0.0000
 15 H      0.8633     1.0000     0.1367     0.9776     0.9776     0.0000

  Mayer bond orders larger than 0.1
B(  0-O ,  1-C ) :   1.0622 B(  0-O ,  9-H ) :   0.8422 B(  1-C ,  2-C ) :   0.9084 
B(  1-C ,  7-C ) :   0.9799 B(  1-C , 10-H ) :   0.9737 B(  2-C ,  3-C ) :   0.9849 
B(  2-C , 11-H ) :   0.9651 B(  2-C , 12-H ) :   0.9535 B(  3-C ,  4-O ) :   2.0025 
B(  3-C ,  5-N ) :   1.1767 B(  5-N ,  6-C ) :   0.9197 B(  5-N , 13-H ) :   0.9036 
B(  6-C ,  7-C ) :   0.9832 B(  6-C , 14-H ) :   0.9565 B(  6-C , 15-H ) :   0.9778 
B(  7-C ,  8-O ) :   1.9344 

-------
TIMINGS
-------

Total SCF time: 0 days 0 hours 2 min 8 sec 

Total time                  ....     128.042 sec
Sum of individual times     ....     131.599 sec  (102.8%)

Fock matrix formation       ....     126.648 sec  ( 98.9%)
Diagonalization             ....       0.620 sec  (  0.5%)
Density matrix formation    ....       0.044 sec  (  0.0%)
Population analysis         ....       0.140 sec  (  0.1%)
Initial guess               ....       2.505 sec  (  2.0%)
Orbital Transformation      ....       0.000 sec  (  0.0%)
Orbital Orthonormalization  ....       0.000 sec  (  0.0%)
DIIS solution               ....       0.174 sec  (  0.1%)
SOSCF solution              ....       0.288 sec  (  0.2%)

   <<< Auxbasis replaced with dsgdb9nsd_085602.AUXC.tmp (Dim=789) >>> 


------------------------------------------------------------------------------
                              ORCA MP2 CALCULATION
------------------------------------------------------------------------------

Freezing NCore=18 chemical core electrons

   <<< Use J-auxbasis for calculation of Separable RI-J derivative contributions dsgdb9nsd_085602.AUXJ.tmp (Dim=809) >>> 


---------------------
RI-MP2 ENERGY+DENSITY
---------------------
Dimension of the basis                    ...  321
Memory devoted to MP2                     ... 2000 MB   
Data format for buffers                   ... DOUBLE
Compression type for matrix containers    ... UNCOMPRESSED
Overall scaling of the MP2 energy         ...   1.000e+00 Eh
Calculating two index integrals           ... done (    0.016 sec)
Cholesky decomposition of V**-1           ... done (    0.100 sec)

-----------------
RI-TRANSFORMATION (AUX index driven)
-----------------

Dimension of the orbital-basis         ... 321
Dimension of the aux-basis             ... 789
Transformation of internal MOs         ...    0-  33
Transformation of internal/external MOs...    0-  33 to   34- 320
Number Format for Storage              ... Double (8 Byte)
Integral mode                          ... Direct

First Phase: integral generation and transformation of MO indices
  Aux angular momentum 0               ... done (    0.644 sec)
  Aux angular momentum 1               ... done (    0.860 sec)
  Aux angular momentum 2               ... done (    0.934 sec)
  Aux angular momentum 3               ... done (    0.802 sec)
  Aux angular momentum 4               ... done (    0.372 sec)
Closing buffer VIJ ( 0.00 GB; CompressionRatio= 1.94)
Closing buffer VIA ( 0.06 GB; CompressionRatio= 1.00)
  Phase 1 completed in     3.709 sec
Second Phase: sorting and transformation of aux index

IJ-Transformation
Memory available                       ... 1988 MB 
Max. # MO pairs treated in a batch     ... 34    
# of internal orbitals                 ... 34
# batches for internal orbitals        ... 1
Closing buffer IJV ( 0.00 GB; CompressionRatio= 1.00)
(ij|v) transformation done in     0.173 sec

IA-Transformation
Memory available                       ... 1988 MB 
Max. # MO pairs treated in a batch     ... 34    
# of internal orbitals                 ... 34
# batches for internal orbitals        ... 1
Closing buffer IAV ( 0.06 GB; CompressionRatio= 1.00)
(ia|v) transformation done in     1.263 sec

  Phase 2 completed in     1.563 sec
RI-Integral transformation completed in     5.273 sec
Opening buffers                              ... done
Frozen core precalculation                   ... done

Starting loop over batches of integrals:

Operator 0  - window                       ... (  9- 33)x( 34-320)
Operator 0  - Memory available             ...  2000 MB
Operator 0  - Memory needed per MO         ...   3.5 MB
Operator 0  - Number of orbitals per batch ... 25
Operator 0  - Number of batches            ... 1

OPERATOR  0   PASS   0:  MOs     9 ...   33
  Reading integrals       ... ok
  Internal MO  11
  Internal MO  14
  Internal MO  17
  Internal MO  20
  Internal MO  23
  Internal MO  26
  Internal MO  29
  Internal MO  32
Time spent in pair loops =    32.540 sec
Deleting buffer (Ka|jb)[aa] ...done

-----------------------------------------------
 RI-MP2 CORRELATION ENERGY:     -1.678989258 Eh
-----------------------------------------------


---------------------
MP2 DENSITY FORMATION
---------------------

Completing the external part of the density      ... done
Storing the unrelaxed density                    ... done

Calculating G(D)                                 ... done
Completing the Lagrangian                        ... done
Solving the Z-vector equations                   ... 

------------------------------------------------------------------------------
                           ORCA CP-SCF CALCULATION
------------------------------------------------------------------------------

Input orbitals are from        ... dsgdb9nsd_085602.gbw
Input Perturbation             ... dsgdb9nsd_085602.pin.tmp
Wavefunction output            ... dsgdb9nsd_085602.pout.tmp
Perturbation mode              ... Real perturbation
Solver                         ... POPLE
Max. number of iterations      ... 128
Convergence tolerance          ... 1.000e-08
Integral handling              ... Direct
Number of perturbations        ... 1
Number of operators            ... 1
Orbital ranges used for CP-SCF:
 Operator 0:  Orbitals   0... 33  to  34...320
Variables per vector in CP-SCF ... 9758
Number of vectors sought       ... 1
     CP-SCF ITERATION   0: 
     CP-SCF ITERATION   1:      0.002465501
     CP-SCF ITERATION   2:      0.000509615
     CP-SCF ITERATION   3:      0.000029753
     CP-SCF ITERATION   4:      0.000004198
     CP-SCF ITERATION   5:      0.000000584
     CP-SCF ITERATION   6:      0.000000088
     CP-SCF ITERATION   7:      0.000000012
     CP-SCF ITERATION   8:      0.000000003
done
Finalizing the relaxed density                   ... done
Transforming P to the AO basis                   ... done
Storing the relaxed density                      ... done

                *********************************************
                * UNRELAXED MP2 DENSITY POPULATION ANALYSIS *
                *********************************************

------------------------------------------------------------------------------
                           ORCA POPULATION ANALYSIS
------------------------------------------------------------------------------
Input electron density              ... dsgdb9nsd_085602.pmp2ur
BaseName (.gbw .S,...)              ... dsgdb9nsd_085602

                    ********************************
                    * MULLIKEN POPULATION ANALYSIS *
                    ********************************

-----------------------
MULLIKEN ATOMIC CHARGES
-----------------------
   0 O :   -0.529632
   1 C :    0.169441
   2 C :   -0.128869
   3 C :    0.314391
   4 O :   -0.456254
   5 N :   -0.392150
   6 C :   -0.051410
   7 C :    0.227533
   8 O :   -0.431715
   9 H :    0.361479
  10 H :    0.100695
  11 H :    0.150558
  12 H :    0.125555
  13 H :    0.256311
  14 H :    0.144239
  15 H :    0.139826
Sum of atomic charges:    0.0000000

--------------------------------
MULLIKEN REDUCED ORBITAL CHARGES
--------------------------------
  0 O s       :     3.789340  s :     3.789340
      pz      :     1.691264  p :     4.673871
      px      :     1.680711
      py      :     1.301896
      dz2     :     0.010384  d :     0.061878
      dxz     :     0.012998
      dyz     :     0.011714
      dx2y2   :     0.016737
      dxy     :     0.010045
      f0      :     0.000558  f :     0.004543
      f+1     :     0.000628
      f-1     :     0.000623
      f+2     :     0.000683
      f-2     :     0.000645
      f+3     :     0.000599
      f-3     :     0.000806
  1 C s       :     3.052736  s :     3.052736
      pz      :     0.910664  p :     2.558888
      px      :     0.944549
      py      :     0.703675
      dz2     :     0.021593  d :     0.201586
      dxz     :     0.033584
      dyz     :     0.053403
      dx2y2   :     0.033114
      dxy     :     0.059892
      f0      :     0.002101  f :     0.017349
      f+1     :     0.001967
      f-1     :     0.002103
      f+2     :     0.002997
      f-2     :     0.001546
      f+3     :     0.004109
      f-3     :     0.002527
  2 C s       :     3.056510  s :     3.056510
      pz      :     1.094737  p :     2.949972
      px      :     0.952513
      py      :     0.902722
      dz2     :     0.020869  d :     0.112354
      dxz     :     0.026940
      dyz     :     0.016095
      dx2y2   :     0.029417
      dxy     :     0.019032
      f0      :     0.001068  f :     0.010033
      f+1     :     0.001651
      f-1     :     0.001323
      f+2     :     0.001344
      f-2     :     0.000856
      f+3     :     0.001804
      f-3     :     0.001986
  3 C s       :     3.072156  s :     3.072156
      pz      :     0.677398  p :     2.295481
      px      :     0.710425
      py      :     0.907658
      dz2     :     0.047190  d :     0.291217
      dxz     :     0.051922
      dyz     :     0.032626
      dx2y2   :     0.112967
      dxy     :     0.046512
      f0      :     0.001685  f :     0.026755
      f+1     :     0.003997
      f-1     :     0.002740
      f+2     :     0.003706
      f-2     :     0.003662
      f+3     :     0.006724
      f-3     :     0.004242
  4 O s       :     3.830632  s :     3.830632
      pz      :     1.471910  p :     4.557749
      px      :     1.447655
      py      :     1.638184
      dz2     :     0.010554  d :     0.063001
      dxz     :     0.012585
      dyz     :     0.011020
      dx2y2   :     0.013599
      dxy     :     0.015243
      f0      :     0.000522  f :     0.004872
      f+1     :     0.000658
      f-1     :     0.000551
      f+2     :     0.000562
      f-2     :     0.000844
      f+3     :     0.000834
      f-3     :     0.000901
  5 N s       :     3.434003  s :     3.434003
      pz      :     1.505891  p :     3.856501
      px      :     1.244545
      py      :     1.106065
      dz2     :     0.015579  d :     0.093622
      dxz     :     0.017638
      dyz     :     0.014214
      dx2y2   :     0.024979
      dxy     :     0.021211
      f0      :     0.001095  f :     0.008024
      f+1     :     0.001263
      f-1     :     0.000961
      f+2     :     0.001158
      f-2     :     0.001257
      f+3     :     0.000997
      f-3     :     0.001293
  6 C s       :     3.133223  s :     3.133223
      pz      :     0.967028  p :     2.763069
      px      :     0.914549
      py      :     0.881492
      dz2     :     0.044707  d :     0.142405
      dxz     :     0.017653
      dyz     :     0.022698
      dx2y2   :     0.031372
      dxy     :     0.025974
      f0      :     0.001840  f :     0.012714
      f+1     :     0.002144
      f-1     :     0.001550
      f+2     :     0.001742
      f-2     :     0.001537
      f+3     :     0.001614
      f-3     :     0.002286
  7 C s       :     3.155540  s :     3.155540
      pz      :     0.793703  p :     2.347143
      px      :     0.722276
      py      :     0.831164
      dz2     :     0.061656  d :     0.247301
      dxz     :     0.038432
      dyz     :     0.038783
      dx2y2   :     0.070640
      dxy     :     0.037789
      f0      :     0.002185  f :     0.022484
      f+1     :     0.002833
      f-1     :     0.004034
      f+2     :     0.004076
      f-2     :     0.002809
      f+3     :     0.003409
      f-3     :     0.003139
  8 O s       :     3.847790  s :     3.847790
      pz      :     1.556959  p :     4.515476
      px      :     1.378951
      py      :     1.579566
      dz2     :     0.012119  d :     0.063655
      dxz     :     0.010596
      dyz     :     0.013855
      dx2y2   :     0.013604
      dxy     :     0.013481
      f0      :     0.000555  f :     0.004794
      f+1     :     0.000575
      f-1     :     0.000747
      f+2     :     0.000692
      f-2     :     0.000820
      f+3     :     0.000667
      f-3     :     0.000739
  9 H s       :     0.590118  s :     0.590118
      pz      :     0.018926  p :     0.048403
      px      :     0.018552
      py      :     0.010925
 10 H s       :     0.874132  s :     0.874132
      pz      :     0.012587  p :     0.025173
      px      :     0.006639
      py      :     0.005947
 11 H s       :     0.823630  s :     0.823630
      pz      :     0.011742  p :     0.025812
      px      :     0.008854
      py      :     0.005216
 12 H s       :     0.848716  s :     0.848716
      pz      :     0.011593  p :     0.025729
      px      :     0.007128
      py      :     0.007007
 13 H s       :     0.704065  s :     0.704065
      pz      :     0.010329  p :     0.039624
      px      :     0.007413
      py      :     0.021883
 14 H s       :     0.830332  s :     0.830332
      pz      :     0.004555  p :     0.025429
      px      :     0.014078
      py      :     0.006797
 15 H s       :     0.834968  s :     0.834968
      pz      :     0.016455  p :     0.025205
      px      :     0.004347
      py      :     0.004403


                     *******************************
                     * LOEWDIN POPULATION ANALYSIS *
                     *******************************

----------------------
LOEWDIN ATOMIC CHARGES
----------------------
   0 O :   -0.013826
   1 C :   -0.302520
   2 C :   -0.164968
   3 C :   -0.392396
   4 O :    0.034534
   5 N :    0.090877
   6 C :   -0.215840
   7 C :   -0.261601
   8 O :    0.091182
   9 H :    0.191769
  10 H :    0.152718
  11 H :    0.155322
  12 H :    0.152387
  13 H :    0.190927
  14 H :    0.148432
  15 H :    0.143003

-------------------------------
LOEWDIN REDUCED ORBITAL CHARGES
-------------------------------
  0 O s       :     3.344877  s :     3.344877
      pz      :     1.614687  p :     4.563568
      px      :     1.597923
      py      :     1.350958
      dz2     :     0.012655  d :     0.097861
      dxz     :     0.015310
      dyz     :     0.022655
      dx2y2   :     0.026507
      dxy     :     0.020734
      f0      :     0.000764  f :     0.007520
      f+1     :     0.000798
      f-1     :     0.001015
      f+2     :     0.001453
      f-2     :     0.000869
      f+3     :     0.001289
      f-3     :     0.001333
  1 C s       :     2.735909  s :     2.735909
      pz      :     0.985270  p :     2.796486
      px      :     0.990912
      py      :     0.820304
      dz2     :     0.086377  d :     0.674556
      dxz     :     0.110180
      dyz     :     0.160011
      dx2y2   :     0.155484
      dxy     :     0.162505
      f0      :     0.011368  f :     0.095568
      f+1     :     0.008162
      f-1     :     0.012109
      f+2     :     0.016216
      f-2     :     0.008867
      f+3     :     0.022931
      f-3     :     0.015914
  2 C s       :     2.772318  s :     2.772318
      pz      :     1.022120  p :     2.975875
      px      :     0.980146
      py      :     0.973609
      dz2     :     0.054551  d :     0.375712
      dxz     :     0.094023
      dyz     :     0.052461
      dx2y2   :     0.100621
      dxy     :     0.074055
      f0      :     0.004167  f :     0.041064
      f+1     :     0.005211
      f-1     :     0.004976
      f+2     :     0.005280
      f-2     :     0.004821
      f+3     :     0.008562
      f-3     :     0.008048
  3 C s       :     2.739216  s :     2.739216
      pz      :     0.721010  p :     2.582556
      px      :     0.872077
      py      :     0.989469
      dz2     :     0.136495  d :     0.926442
      dxz     :     0.164333
      dyz     :     0.121516
      dx2y2   :     0.292568
      dxy     :     0.211529
      f0      :     0.009408  f :     0.144182
      f+1     :     0.015991
      f-1     :     0.014168
      f+2     :     0.020464
      f-2     :     0.021173
      f+3     :     0.040133
      f-3     :     0.022845
  4 O s       :     3.398629  s :     3.398629
      pz      :     1.403481  p :     4.461191
      px      :     1.472591
      py      :     1.585118
      dz2     :     0.013620  d :     0.096711
      dxz     :     0.019221
      dyz     :     0.013959
      dx2y2   :     0.021798
      dxy     :     0.028113
      f0      :     0.000931  f :     0.008935
      f+1     :     0.001006
      f-1     :     0.000741
      f+2     :     0.001007
      f-2     :     0.001662
      f+3     :     0.001786
      f-3     :     0.001803
  5 N s       :     2.929044  s :     2.929044
      pz      :     1.374167  p :     3.724194
      px      :     1.241409
      py      :     1.108617
      dz2     :     0.036147  d :     0.237736
      dxz     :     0.043805
      dyz     :     0.031054
      dx2y2   :     0.074900
      dxy     :     0.051829
      f0      :     0.002028  f :     0.018150
      f+1     :     0.002680
      f-1     :     0.001910
      f+2     :     0.002775
      f-2     :     0.002573
      f+3     :     0.003364
      f-3     :     0.002820
  6 C s       :     2.772971  s :     2.772971
      pz      :     0.989252  p :     2.911109
      px      :     0.947685
      py      :     0.974172
      dz2     :     0.143790  d :     0.473242
      dxz     :     0.054883
      dyz     :     0.075959
      dx2y2   :     0.102157
      dxy     :     0.096452
      f0      :     0.006032  f :     0.058519
      f+1     :     0.009266
      f-1     :     0.007193
      f+2     :     0.009573
      f-2     :     0.008687
      f+3     :     0.007116
      f-3     :     0.010652
  7 C s       :     2.760969  s :     2.760969
      pz      :     0.872883  p :     2.594206
      px      :     0.758635
      py      :     0.962688
      dz2     :     0.169955  d :     0.787079
      dxz     :     0.133231
      dyz     :     0.152329
      dx2y2   :     0.186801
      dxy     :     0.144764
      f0      :     0.010866  f :     0.119346
      f+1     :     0.013963
      f-1     :     0.023219
      f+2     :     0.019854
      f-2     :     0.016609
      f+3     :     0.020401
      f-3     :     0.014435
  8 O s       :     3.392500  s :     3.392500
      pz      :     1.490694  p :     4.406962
      px      :     1.365023
      py      :     1.551245
      dz2     :     0.017085  d :     0.100234
      dxz     :     0.019573
      dyz     :     0.020999
      dx2y2   :     0.019901
      dxy     :     0.022675
      f0      :     0.000980  f :     0.009123
      f+1     :     0.001084
      f-1     :     0.001259
      f+2     :     0.001193
      f-2     :     0.001949
      f+3     :     0.001501
      f-3     :     0.001157
  9 H s       :     0.644033  s :     0.644033
      pz      :     0.067775  p :     0.164197
      px      :     0.066356
      py      :     0.030067
 10 H s       :     0.786935  s :     0.786935
      pz      :     0.028574  p :     0.060347
      px      :     0.017181
      py      :     0.014592
 11 H s       :     0.779476  s :     0.779476
      pz      :     0.030060  p :     0.065202
      px      :     0.021524
      py      :     0.013619
 12 H s       :     0.782978  s :     0.782978
      pz      :     0.029659  p :     0.064635
      px      :     0.017713
      py      :     0.017263
 13 H s       :     0.696963  s :     0.696963
      pz      :     0.029782  p :     0.112110
      px      :     0.021523
      py      :     0.060805
 14 H s       :     0.787667  s :     0.787667
      pz      :     0.012941  p :     0.063901
      px      :     0.033921
      py      :     0.017039
 15 H s       :     0.793092  s :     0.793092
      pz      :     0.039744  p :     0.063905
      px      :     0.011982
      py      :     0.012179


                      *****************************
                      * MAYER POPULATION ANALYSIS *
                      *****************************

  NA   - Mulliken gross atomic population
  ZA   - Total nuclear charge
  QA   - Mulliken gross atomic charge
  VA   - Mayer's total valence
  BVA  - Mayer's bonded valence
  FA   - Mayer's free valence

  ATOM       NA         ZA         QA         VA         BVA        FA
  0 O      8.5296     8.0000    -0.5296     2.1569     1.7550     0.4019
  1 C      5.8306     6.0000     0.1694     4.0338     3.7101     0.3237
  2 C      6.1289     6.0000    -0.1289     3.7693     3.4565     0.3128
  3 C      5.6856     6.0000     0.3144     4.3308     3.9876     0.3432
  4 O      8.4563     8.0000    -0.4563     2.3012     1.8473     0.4539
  5 N      7.3921     7.0000    -0.3921     3.1533     2.7461     0.4072
  6 C      6.0514     6.0000    -0.0514     3.9249     3.6217     0.3032
  7 C      5.7725     6.0000     0.2275     4.0395     3.6884     0.3511
  8 O      8.4317     8.0000    -0.4317     2.2845     1.8271     0.4574
  9 H      0.6385     1.0000     0.3615     0.9034     0.8537     0.0497
 10 H      0.8993     1.0000     0.1007     0.9855     0.9338     0.0517
 11 H      0.8494     1.0000     0.1506     0.9983     0.9500     0.0484
 12 H      0.8744     1.0000     0.1256     1.0023     0.9516     0.0507
 13 H      0.7437     1.0000     0.2563     0.9516     0.9034     0.0482
 14 H      0.8558     1.0000     0.1442     0.9807     0.9315     0.0492
 15 H      0.8602     1.0000     0.1398     0.9853     0.9354     0.0499

  Mayer bond orders larger than 0.1
B(  0-O ,  1-C ) :   0.9982 B(  0-O ,  9-H ) :   0.8022 B(  1-C ,  2-C ) :   0.8493 
B(  1-C ,  7-C ) :   0.9207 B(  1-C , 10-H ) :   0.9337 B(  2-C ,  3-C ) :   0.9251 
B(  2-C , 11-H ) :   0.9266 B(  2-C , 12-H ) :   0.9143 B(  3-C ,  4-O ) :   1.8660 
B(  3-C ,  5-N ) :   1.1062 B(  5-N ,  6-C ) :   0.8634 B(  5-N , 13-H ) :   0.8650 
B(  6-C ,  7-C ) :   0.9253 B(  6-C , 14-H ) :   0.9181 B(  6-C , 15-H ) :   0.9392 
B(  7-C ,  8-O ) :   1.7887 


                *******************************************
                * RELAXED MP2 DENSITY POPULATION ANALYSIS *
                *******************************************

------------------------------------------------------------------------------
                           ORCA POPULATION ANALYSIS
------------------------------------------------------------------------------
Input electron density              ... dsgdb9nsd_085602.pmp2re
BaseName (.gbw .S,...)              ... dsgdb9nsd_085602

                    ********************************
                    * MULLIKEN POPULATION ANALYSIS *
                    ********************************

-----------------------
MULLIKEN ATOMIC CHARGES
-----------------------
   0 O :   -0.464070
   1 C :    0.068255
   2 C :   -0.167422
   3 C :    0.175206
   4 O :   -0.329402
   5 N :   -0.313703
   6 C :   -0.111859
   7 C :    0.139526
   8 O :   -0.302317
   9 H :    0.337629
  10 H :    0.116298
  11 H :    0.159462
  12 H :    0.137082
  13 H :    0.244513
  14 H :    0.157783
  15 H :    0.153017
Sum of atomic charges:    0.0000000

--------------------------------
MULLIKEN REDUCED ORBITAL CHARGES
--------------------------------
  0 O s       :     3.782298  s :     3.782298
      pz      :     1.664586  p :     4.617695
      px      :     1.652891
      py      :     1.300218
      dz2     :     0.009995  d :     0.059608
      dxz     :     0.012253
      dyz     :     0.011901
      dx2y2   :     0.015042
      dxy     :     0.010416
      f0      :     0.000557  f :     0.004469
      f+1     :     0.000617
      f-1     :     0.000606
      f+2     :     0.000678
      f-2     :     0.000634
      f+3     :     0.000610
      f-3     :     0.000768
  1 C s       :     3.100762  s :     3.100762
      pz      :     0.946386  p :     2.619147
      px      :     0.960529
      py      :     0.712232
      dz2     :     0.020033  d :     0.195182
      dxz     :     0.031651
      dyz     :     0.051998
      dx2y2   :     0.032301
      dxy     :     0.059198
      f0      :     0.002141  f :     0.016654
      f+1     :     0.001762
      f-1     :     0.001965
      f+2     :     0.002946
      f-2     :     0.001423
      f+3     :     0.004010
      f-3     :     0.002407
  2 C s       :     3.077851  s :     3.077851
      pz      :     1.095093  p :     2.977397
      px      :     0.954053
      py      :     0.928251
      dz2     :     0.017063  d :     0.102596
      dxz     :     0.026149
      dyz     :     0.016571
      dx2y2   :     0.023633
      dxy     :     0.019180
      f0      :     0.001083  f :     0.009578
      f+1     :     0.001528
      f-1     :     0.001216
      f+2     :     0.001373
      f-2     :     0.000862
      f+3     :     0.001822
      f-3     :     0.001695
  3 C s       :     3.078843  s :     3.078843
      pz      :     0.774777  p :     2.443058
      px      :     0.749677
      py      :     0.918604
      dz2     :     0.043970  d :     0.277939
      dxz     :     0.048458
      dyz     :     0.031202
      dx2y2   :     0.106708
      dxy     :     0.047602
      f0      :     0.001735  f :     0.024954
      f+1     :     0.003497
      f-1     :     0.002478
      f+2     :     0.003603
      f-2     :     0.003430
      f+3     :     0.006367
      f-3     :     0.003843
  4 O s       :     3.805676  s :     3.805676
      pz      :     1.425443  p :     4.458865
      px      :     1.428396
      py      :     1.605026
      dz2     :     0.010199  d :     0.060116
      dxz     :     0.012125
      dyz     :     0.010296
      dx2y2   :     0.013628
      dxy     :     0.013868
      f0      :     0.000498  f :     0.004745
      f+1     :     0.000645
      f-1     :     0.000551
      f+2     :     0.000565
      f-2     :     0.000796
      f+3     :     0.000841
      f-3     :     0.000850
  5 N s       :     3.425324  s :     3.425324
      pz      :     1.463181  p :     3.790798
      px      :     1.229976
      py      :     1.097641
      dz2     :     0.016328  d :     0.089850
      dxz     :     0.017384
      dyz     :     0.013177
      dx2y2   :     0.024112
      dxy     :     0.018849
      f0      :     0.001031  f :     0.007731
      f+1     :     0.001289
      f-1     :     0.000941
      f+2     :     0.001137
      f-2     :     0.001156
      f+3     :     0.001004
      f-3     :     0.001173
  6 C s       :     3.145617  s :     3.145617
      pz      :     0.989004  p :     2.823798
      px      :     0.930354
      py      :     0.904441
      dz2     :     0.039691  d :     0.130410
      dxz     :     0.015964
      dyz     :     0.021777
      dx2y2   :     0.027798
      dxy     :     0.025181
      f0      :     0.001710  f :     0.012034
      f+1     :     0.002042
      f-1     :     0.001498
      f+2     :     0.001611
      f-2     :     0.001478
      f+3     :     0.001648
      f-3     :     0.002046
  7 C s       :     3.164978  s :     3.164978
      pz      :     0.828484  p :     2.440412
      px      :     0.770471
      py      :     0.841457
      dz2     :     0.057531  d :     0.234115
      dxz     :     0.037748
      dyz     :     0.036974
      dx2y2   :     0.064178
      dxy     :     0.037684
      f0      :     0.002127  f :     0.020969
      f+1     :     0.002576
      f-1     :     0.003696
      f+2     :     0.003704
      f-2     :     0.002790
      f+3     :     0.003325
      f-3     :     0.002752
  8 O s       :     3.826582  s :     3.826582
      pz      :     1.520557  p :     4.410365
      px      :     1.340615
      py      :     1.549193
      dz2     :     0.011869  d :     0.060714
      dxz     :     0.010454
      dyz     :     0.012640
      dx2y2   :     0.013246
      dxy     :     0.012504
      f0      :     0.000531  f :     0.004656
      f+1     :     0.000570
      f-1     :     0.000750
      f+2     :     0.000679
      f-2     :     0.000758
      f+3     :     0.000650
      f-3     :     0.000717
  9 H s       :     0.612981  s :     0.612981
      pz      :     0.019191  p :     0.049390
      px      :     0.018806
      py      :     0.011393
 10 H s       :     0.859705  s :     0.859705
      pz      :     0.011486  p :     0.023997
      px      :     0.006586
      py      :     0.005924
 11 H s       :     0.815969  s :     0.815969
      pz      :     0.010772  p :     0.024568
      px      :     0.008429
      py      :     0.005367
 12 H s       :     0.838375  s :     0.838375
      pz      :     0.010732  p :     0.024542
      px      :     0.006955
      py      :     0.006856
 13 H s       :     0.716915  s :     0.716915
      pz      :     0.010430  p :     0.038572
      px      :     0.007636
      py      :     0.020505
 14 H s       :     0.817969  s :     0.817969
      pz      :     0.004818  p :     0.024248
      px      :     0.012717
      py      :     0.006712
 15 H s       :     0.822919  s :     0.822919
      pz      :     0.014780  p :     0.024064
      px      :     0.004566
      py      :     0.004719


                     *******************************
                     * LOEWDIN POPULATION ANALYSIS *
                     *******************************

----------------------
LOEWDIN ATOMIC CHARGES
----------------------
   0 O :    0.005705
   1 C :   -0.335163
   2 C :   -0.190735
   3 C :   -0.451911
   4 O :    0.094744
   5 N :    0.106748
   6 C :   -0.242928
   7 C :   -0.305223
   8 O :    0.155843
   9 H :    0.186453
  10 H :    0.159975
  11 H :    0.160658
  12 H :    0.158681
  13 H :    0.192158
  14 H :    0.155362
  15 H :    0.149632

-------------------------------
LOEWDIN REDUCED ORBITAL CHARGES
-------------------------------
  0 O s       :     3.348516  s :     3.348516
      pz      :     1.603602  p :     4.540082
      px      :     1.586595
      py      :     1.349885
      dz2     :     0.012450  d :     0.098060
      dxz     :     0.015309
      dyz     :     0.023347
      dx2y2   :     0.025525
      dxy     :     0.021429
      f0      :     0.000777  f :     0.007638
      f+1     :     0.000808
      f-1     :     0.001030
      f+2     :     0.001480
      f-2     :     0.000879
      f+3     :     0.001313
      f-3     :     0.001349
  1 C s       :     2.744160  s :     2.744160
      pz      :     0.999426  p :     2.821078
      px      :     0.996945
      py      :     0.824707
      dz2     :     0.086084  d :     0.675747
      dxz     :     0.108907
      dyz     :     0.160849
      dx2y2   :     0.154893
      dxy     :     0.165013
      f0      :     0.011503  f :     0.094178
      f+1     :     0.007949
      f-1     :     0.011846
      f+2     :     0.015816
      f-2     :     0.008727
      f+3     :     0.022334
      f-3     :     0.016003
  2 C s       :     2.779824  s :     2.779824
      pz      :     1.029809  p :     3.000103
      px      :     0.982767
      py      :     0.987528
      dz2     :     0.051243  d :     0.369597
      dxz     :     0.092556
      dyz     :     0.055497
      dx2y2   :     0.094820
      dxy     :     0.075482
      f0      :     0.004287  f :     0.041210
      f+1     :     0.005102
      f-1     :     0.004899
      f+2     :     0.005525
      f-2     :     0.004870
      f+3     :     0.008786
      f-3     :     0.007741
  3 C s       :     2.741898  s :     2.741898
      pz      :     0.785307  p :     2.655649
      px      :     0.886969
      py      :     0.983372
      dz2     :     0.131929  d :     0.916991
      dxz     :     0.162970
      dyz     :     0.117792
      dx2y2   :     0.291009
      dxy     :     0.213291
      f0      :     0.009601  f :     0.137373
      f+1     :     0.013277
      f-1     :     0.013633
      f+2     :     0.019475
      f-2     :     0.021061
      f+3     :     0.038043
      f-3     :     0.022283
  4 O s       :     3.400347  s :     3.400347
      pz      :     1.372659  p :     4.398265
      px      :     1.458776
      py      :     1.566830
      dz2     :     0.014221  d :     0.097526
      dxz     :     0.019664
      dyz     :     0.014075
      dx2y2   :     0.022446
      dxy     :     0.027119
      f0      :     0.000929  f :     0.009119
      f+1     :     0.001111
      f-1     :     0.000789
      f+2     :     0.001006
      f-2     :     0.001691
      f+3     :     0.001790
      f-3     :     0.001803
  5 N s       :     2.937671  s :     2.937671
      pz      :     1.348916  p :     3.695575
      px      :     1.234035
      py      :     1.112624
      dz2     :     0.038658  d :     0.241532
      dxz     :     0.045940
      dyz     :     0.030873
      dx2y2   :     0.075169
      dxy     :     0.050892
      f0      :     0.002034  f :     0.018474
      f+1     :     0.002863
      f-1     :     0.001981
      f+2     :     0.002824
      f-2     :     0.002576
      f+3     :     0.003386
      f-3     :     0.002810
  6 C s       :     2.780377  s :     2.780377
      pz      :     0.998624  p :     2.942105
      px      :     0.956084
      py      :     0.987398
      dz2     :     0.138932  d :     0.462931
      dxz     :     0.053206
      dyz     :     0.075546
      dx2y2   :     0.098968
      dxy     :     0.096279
      f0      :     0.005811  f :     0.057514
      f+1     :     0.008754
      f-1     :     0.007082
      f+2     :     0.009496
      f-2     :     0.008694
      f+3     :     0.007332
      f-3     :     0.010345
  7 C s       :     2.765534  s :     2.765534
      pz      :     0.892129  p :     2.644326
      px      :     0.792359
      py      :     0.959838
      dz2     :     0.168005  d :     0.781029
      dxz     :     0.135273
      dyz     :     0.150181
      dx2y2   :     0.182420
      dxy     :     0.145149
      f0      :     0.010785  f :     0.114333
      f+1     :     0.012755
      f-1     :     0.022211
      f+2     :     0.018539
      f-2     :     0.016885
      f+3     :     0.019712
      f-3     :     0.013447
  8 O s       :     3.395186  s :     3.395186
      pz      :     1.467085  p :     4.338864
      px      :     1.337171
      py      :     1.534609
      dz2     :     0.017527  d :     0.100845
      dxz     :     0.019691
      dyz     :     0.020693
      dx2y2   :     0.020542
      dxy     :     0.022392
      f0      :     0.000977  f :     0.009261
      f+1     :     0.001102
      f-1     :     0.001306
      f+2     :     0.001232
      f-2     :     0.001934
      f+3     :     0.001498
      f-3     :     0.001213
  9 H s       :     0.648659  s :     0.648659
      pz      :     0.068213  p :     0.164887
      px      :     0.066598
      py      :     0.030076
 10 H s       :     0.778623  s :     0.778623
      pz      :     0.028551  p :     0.061402
      px      :     0.017648
      py      :     0.015202
 11 H s       :     0.773587  s :     0.773587
      pz      :     0.029778  p :     0.065755
      px      :     0.021672
      py      :     0.014306
 12 H s       :     0.775909  s :     0.775909
      pz      :     0.029670  p :     0.065410
      px      :     0.017975
      py      :     0.017765
 13 H s       :     0.696632  s :     0.696632
      pz      :     0.029458  p :     0.111210
      px      :     0.021886
      py      :     0.059866
 14 H s       :     0.780003  s :     0.780003
      pz      :     0.013527  p :     0.064635
      px      :     0.033530
      py      :     0.017578
 15 H s       :     0.785660  s :     0.785660
      pz      :     0.039197  p :     0.064707
      px      :     0.012550
      py      :     0.012960


                      *****************************
                      * MAYER POPULATION ANALYSIS *
                      *****************************

  NA   - Mulliken gross atomic population
  ZA   - Total nuclear charge
  QA   - Mulliken gross atomic charge
  VA   - Mayer's total valence
  BVA  - Mayer's bonded valence
  FA   - Mayer's free valence

  ATOM       NA         ZA         QA         VA         BVA        FA
  0 O      8.4641     8.0000    -0.4641     2.2371     1.8434     0.3938
  1 C      5.9317     6.0000     0.0683     4.0761     3.7591     0.3170
  2 C      6.1674     6.0000    -0.1674     3.6652     3.3570     0.3082
  3 C      5.8248     6.0000     0.1752     4.4706     4.1486     0.3220
  4 O      8.3294     8.0000    -0.3294     2.4635     2.0268     0.4366
  5 N      7.3137     7.0000    -0.3137     3.2250     2.8283     0.3967
  6 C      6.1119     6.0000    -0.1119     3.9068     3.6083     0.2984
  7 C      5.8605     6.0000     0.1395     4.1562     3.8213     0.3350
  8 O      8.3023     8.0000    -0.3023     2.4360     1.9959     0.4401
  9 H      0.6624     1.0000     0.3376     0.9270     0.8784     0.0486
 10 H      0.8837     1.0000     0.1163     0.9696     0.9194     0.0503
 11 H      0.8405     1.0000     0.1595     0.9948     0.9475     0.0473
 12 H      0.8629     1.0000     0.1371     0.9983     0.9489     0.0494
 13 H      0.7555     1.0000     0.2445     0.9597     0.9123     0.0474
 14 H      0.8422     1.0000     0.1578     0.9716     0.9234     0.0482
 15 H      0.8470     1.0000     0.1530     0.9760     0.9273     0.0487

  Mayer bond orders larger than 0.1
B(  0-O ,  1-C ) :   1.0849 B(  0-O ,  9-H ) :   0.8048 B(  1-C ,  2-C ) :   0.8330 
B(  1-C ,  7-C ) :   0.9238 B(  1-C , 10-H ) :   0.9124 B(  2-C ,  3-C ) :   0.9091 
B(  2-C , 11-H ) :   0.9139 B(  2-C , 12-H ) :   0.8994 B(  3-C ,  4-O ) :   2.0015 
B(  3-C ,  5-N ) :   1.1345 B(  5-N ,  6-C ) :   0.8938 B(  5-N , 13-H ) :   0.8571 
B(  6-C ,  7-C ) :   0.9151 B(  6-C , 14-H ) :   0.8999 B(  6-C , 15-H ) :   0.9207 
B(  7-C ,  8-O ) :   1.9225 


-------
TIMINGS
-------

Total time                :  831.587 sec
Integral trafo            :    5.281 sec (  0.6%)
FC preparation            :    3.103 sec (  0.4%)
I/O of integrals          :    0.046 sec (  0.0%)
K(i,j) Operators          :    7.939 sec (  1.0%)
T(i,j) pair energies      :    0.724 sec (  0.1%)
V-calculation             :    0.016 sec (  0.0%)
V**(-1/2)                 :    0.100 sec (  0.0%)
Gamma(ia|P)               :    7.743 sec (  0.9%)
Gamma-Trafo               :    1.249 sec (  0.2%)
D(virtual)                :    2.899 sec (  0.3%)
D(internal)               :    2.719 sec (  0.3%)
W(virtual)                :    0.000 sec (  0.0%)
W(internal)               :    0.000 sec (  0.0%)
L(virtual)                :    8.784 sec (  1.1%)
L(internal)               :    0.178 sec (  0.0%)
G(D)                      :   84.428 sec ( 10.2%)
G(Z)                      :    0.000 sec (  0.0%)
Z-Vector Solution         :  705.707 sec ( 84.9%)
3-Index Derivative        :    0.000 sec (  0.0%)
2-Index Derivative        :    0.000 sec (  0.0%)
Separable Gradient (RIJ)  :    0.000 sec (  0.0%)
Separable Gradient (X)    :    0.000 sec (  0.0%)


---------------------------------------
MP2 TOTAL ENERGY:     -474.331307275 Eh
---------------------------------------

-------------------------   --------------------
FINAL SINGLE POINT ENERGY      -474.331307275380
-------------------------   --------------------


                            ***************************************
                            *     ORCA property calculations      *
                            ***************************************

                                    ---------------------
                                    Active property flags
                                    ---------------------
   (+) Dipole Moment


------------------------------------------------------------------------------
                       ORCA ELECTRIC PROPERTIES CALCULATION
------------------------------------------------------------------------------

Dipole Moment Calculation                       ... on
Quadrupole Moment Calculation                   ... off
Polarizability Calculation                      ... off
GBWName                                         ... dsgdb9nsd_085602.gbw
Electron density file                           ... dsgdb9nsd_085602.scfp.tmp

-------------
DIPOLE MOMENT
-------------
                                X             Y             Z
Electronic contribution:      0.07400      -0.01232       0.10401
Nuclear contribution   :      0.81886      -0.51071      -0.73545
                        -----------------------------------------
Total Dipole Moment    :      0.89286      -0.52303      -0.63144
                        -----------------------------------------
Magnitude (a.u.)       :      1.21222
Magnitude (Debye)      :      3.08122


                         *** MP2 UNRELAXED DENSITY ***

------------------------------------------------------------------------------
                       ORCA ELECTRIC PROPERTIES CALCULATION
------------------------------------------------------------------------------

Dipole Moment Calculation                       ... on
Quadrupole Moment Calculation                   ... off
Polarizability Calculation                      ... off
GBWName                                         ... dsgdb9nsd_085602.gbw
Electron density file                           ... dsgdb9nsd_085602.pmp2ur

-------------
DIPOLE MOMENT
-------------
                                X             Y             Z
Electronic contribution:      0.06767       0.00109       0.10271
Nuclear contribution   :      0.81886      -0.51071      -0.73545
                        -----------------------------------------
Total Dipole Moment    :      0.88653      -0.50962      -0.63274
                        -----------------------------------------
Magnitude (a.u.)       :      1.20250
Magnitude (Debye)      :      3.05651


                           *** MP2 RELAXED DENSITY ***

------------------------------------------------------------------------------
                       ORCA ELECTRIC PROPERTIES CALCULATION
------------------------------------------------------------------------------

Dipole Moment Calculation                       ... on
Quadrupole Moment Calculation                   ... off
Polarizability Calculation                      ... off
GBWName                                         ... dsgdb9nsd_085602.gbw
Electron density file                           ... dsgdb9nsd_085602.pmp2re

-------------
DIPOLE MOMENT
-------------
                                X             Y             Z
Electronic contribution:      0.07844       0.00210       0.06761
Nuclear contribution   :      0.81886      -0.51071      -0.73545
                        -----------------------------------------
Total Dipole Moment    :      0.89730      -0.50861      -0.66784
                        -----------------------------------------
Magnitude (a.u.)       :      1.22875
Magnitude (Debye)      :      3.12324


Timings for individual modules:

Sum of individual times         ...      962.811 sec (=  16.047 min)
GTO integral calculation        ...        0.476 sec (=   0.008 min)   0.0 %
SCF iterations                  ...      130.610 sec (=   2.177 min)  13.6 %
MP2 module                      ...      831.725 sec (=  13.862 min)  86.4 %
                             ****ORCA TERMINATED NORMALLY****
TOTAL RUN TIME: 0 days 0 hours 16 minutes 3 seconds 282 msec
