
                                 *****************
                                 * O   R   C   A *
                                 *****************

           --- An Ab Initio, DFT and Semiempirical electronic structure package ---

                  #######################################################
                  #                        -***-                        #
                  #  Department of molecular theory and spectroscopy    #
                  #              Directorship: Frank Neese              #
                  # Max Planck Institute for Chemical Energy Conversion #
                  #                  D-45470 Muelheim/Ruhr              #
                  #                       Germany                       #
                  #                                                     #
                  #                  All rights reserved                #
                  #                        -***-                        #
                  #######################################################


                         Program Version 3.0.3 - RELEASE   -


 With contributions from (in alphabetic order):
   Ute Becker             : Parallelization
   Dmytro Bykov           : SCF Hessian
   Dmitry Ganyushin       : Spin-Orbit,Spin-Spin,Magnetic field MRCI
   Andreas Hansen         : Spin unrestricted coupled pair/coupled cluster methods
   Dimitrios Liakos       : Extrapolation schemes; parallel MDCI
   Robert Izsak           : Overlap fitted RIJCOSX, COSX-SCS-MP3
   Christian Kollmar      : KDIIS, OOCD, Brueckner-CCSD(T), CCSD density
   Simone Kossmann        : Meta GGA functionals, TD-DFT gradient, OOMP2, MP2 Hessian
   Taras Petrenko         : DFT Hessian,TD-DFT gradient, ASA and ECA modules, normal mode analysis, Resonance Raman, ABS, FL, XAS/XES, NRVS
   Christoph Reimann      : Effective Core Potentials
   Michael Roemelt        : Restricted open shell CIS
   Christoph Riplinger    : Improved optimizer, TS searches, QM/MM, DLPNO-CCSD
   Barbara Sandhoefer     : DKH picture change effects
   Igor Schapiro          : Molecular dynamics
   Kantharuban Sivalingam : CASSCF convergence, NEVPT2
   Boris Wezisla          : Elementary symmetry handling
   Frank Wennmohs         : Technical directorship


 We gratefully acknowledge several colleagues who have allowed us to
 interface, adapt or use parts of their codes:
   Stefan Grimme, W. Hujo, H. Kruse, T. Risthaus : VdW corrections, initial TS optimization,
                                                   DFT functionals, gCP
   Ed Valeev                                     : LibInt (2-el integral package), F12 methods
   Garnet Chan, S. Sharma, R. Olivares           : DMRG
   Ulf Ekstrom                                   : XCFun DFT Library
   Mihaly Kallay                                 : mrcc  (arbitrary order and MRCC methods)
   Andreas Klamt, Michael Diedenhofen            : otool_cosmo (COSMO solvation model)
   Frank Weinhold                                : gennbo (NPA and NBO analysis)
   Christopher J. Cramer and Donald G. Truhlar   : smd solvation model


 Your calculation uses the libint2 library for the computation of 2-el integrals
 For citations please refer to: http://libint.valeyev.net

 This ORCA versions uses:
   CBLAS   interface :  Fast vector & matrix operations
   LAPACKE interface :  Fast linear algebra routines
   SCALAPACK package :  Parallel linear algebra routines


Your calculation utilizes the basis: Ahlrichs-TZV
Cite in your paper:
H - Kr: A. Schaefer, H. Horn and R. Ahlrichs, J. Chem. Phys. 97, 2571 (1992).

The def2-TZV basis will be loaded
Cite in your paper:
 	F. Weigend, R. Ahlrichs, Phys. Chem. Chem. Phys. 2005, 7, 3297.

================================================================================
                                        WARNINGS
                       Please study these warnings very carefully!
================================================================================
Now building the actual basis set


INFO   : the flag for use of LIBINT has been found!

================================================================================
                                       INPUT FILE
================================================================================
NAME = dsgdb9nsd_042315.inp
|  1> ! RI-MP2 RIJK def2-TZVP def2-TZVP/C def2-TZVP/JK TIGHTSCF
|  2> % maxcore 2000
|  3> % mp2 density relaxed end
|  4> *xyz 0 1
|  5>  O       -0.0183082216    -0.1268888619    -0.0418722424 
|  6>  C       -0.0489080038     1.0846083928    -0.0171759841 
|  7>  C        1.1645916889     1.8655515849     0.1685122243 
|  8>  C        2.1538686031     2.5345274668     0.3213454957 
|  9>  C       -1.3214865532     1.9068034099    -0.1321674038 
| 10>  C       -2.5756001564     1.0992389529    -0.5380354308 
| 11>  C       -3.5729372477     1.3758859392     0.6072717764 
| 12>  O       -3.1351419755     2.5832331055     1.2197193145 
| 13>  C       -1.7274047504     2.5164795166     1.2486386040 
| 14>  H        3.0390281131     3.1076370223     0.4572249475 
| 15>  H       -1.1300184092     2.7276585990    -0.8293276645 
| 16>  H       -2.9630001272     1.4541369810    -1.4952090842 
| 17>  H       -2.3393782180     0.0380032061    -0.6320386529 
| 18>  H       -4.6019669054     1.5254987723     0.2730548484 
| 19>  H       -3.5600626105     0.5523540339     1.3383314671 
| 20>  H       -1.3810416553     1.8637211378     2.0673999881 
| 21>  H       -1.3343671809     3.5214166508     1.4134117365 
| 22> *
| 23> 
| 24>                          ****END OF INPUT****
================================================================================

                       ****************************
                       * Single Point Calculation *
                       ****************************

---------------------------------
CARTESIAN COORDINATES (ANGSTROEM)
---------------------------------
  O     -0.018308   -0.126889   -0.041872
  C     -0.048908    1.084608   -0.017176
  C      1.164592    1.865552    0.168512
  C      2.153869    2.534527    0.321345
  C     -1.321487    1.906803   -0.132167
  C     -2.575600    1.099239   -0.538035
  C     -3.572937    1.375886    0.607272
  O     -3.135142    2.583233    1.219719
  C     -1.727405    2.516480    1.248639
  H      3.039028    3.107637    0.457225
  H     -1.130018    2.727659   -0.829328
  H     -2.963000    1.454137   -1.495209
  H     -2.339378    0.038003   -0.632039
  H     -4.601967    1.525499    0.273055
  H     -3.560063    0.552354    1.338331
  H     -1.381042    1.863721    2.067400
  H     -1.334367    3.521417    1.413412

----------------------------
CARTESIAN COORDINATES (A.U.)
----------------------------
  NO LB      ZA    FRAG    MASS        X           Y           Z
   0 O     8.0000    0    15.999         -0.034597524823142         -0.239785198435955         -0.079127070749166
   1 C     6.0000    0    12.011         -0.092422732938780          2.049612824944487         -0.032457906029586
   2 C     6.0000    0    12.011          2.200759349861818          3.525381584163741          0.318441954144910
   3 C     6.0000    0    12.011          4.070221788310530          4.789562791153188          0.607254981242169
   4 C     6.0000    0    12.011         -2.497247675207556          3.603336235938187         -0.249760197013383
   5 C     6.0000    0    12.011         -4.867178926080744          2.077260576719362         -1.016739614558339
   6 C     6.0000    0    12.011         -6.751872891839358          2.600047616601026          1.147577346255863
   7 O     8.0000    0    15.999         -5.924559724655850          4.881603109473904          2.304935464659164
   8 C     6.0000    0    12.011         -3.264321900690597          4.755457107996539          2.359585001801749
   9 H     1.0000    0     1.008          5.742930847046460          5.872582895781529          0.864029932371522
  10 H     1.0000    0     1.008         -2.135425319677359          5.154527738945328         -1.567202161189526
  11 H     1.0000    0     1.008         -5.599258775181833          2.747920655297051         -2.825535682089201
  12 H     1.0000    0     1.008         -4.420784155680726          0.071815651739966         -1.194379960033513
  13 H     1.0000    0     1.008         -8.696457128575089          2.882774897280095          0.515998883015385
  14 H     1.0000    0     1.008         -6.727543353457764          1.043797853037655          2.529079949228040
  15 H     1.0000    0     1.008         -2.609790508054275          3.521922540442110          3.906819786781055
  16 H     1.0000    0     1.008         -2.521588533993556          6.654513073442207          2.670961096455068

--------------------------------
INTERNAL COORDINATES (ANGSTROEM)
--------------------------------
 O      0   0   0   0.000000     0.000     0.000
 C      1   0   0   1.212135     0.000     0.000
 C      2   1   0   1.454969   121.199     0.000
 C      3   2   1   1.203975   178.706   181.427
 C      2   1   3   1.519435   124.086   181.830
 C      5   2   1   1.545862   114.624   349.595
 C      6   5   2   1.543679   103.635   123.198
 O      7   6   5   1.422830   105.821    21.458
 C      8   7   6   1.409616   106.017   320.514
 H      4   3   2   1.063215   178.862   179.254
 H      5   2   1   1.093844   107.921   224.694
 H      6   5   2   1.091885   110.377   242.439
 H      6   5   2   1.091265   110.795     2.652
 H      7   6   5   1.092239   113.967   139.708
 H      7   6   5   1.101281   110.545   262.159
 H      9   8   7   1.102919   110.909   281.859
 H      9   8   7   1.091571   108.608   162.532

---------------------------
INTERNAL COORDINATES (A.U.)
---------------------------
 O      0   0   0   0.000000     0.000     0.000
 C      1   0   0   2.290604     0.000     0.000
 C      2   1   0   2.749492   121.199     0.000
 C      3   2   1   2.275183   178.706   181.427
 C      2   1   3   2.871317   124.086   181.830
 C      5   2   1   2.921256   114.624   349.595
 C      6   5   2   2.917130   103.635   123.198
 O      7   6   5   2.688758   105.821    21.458
 C      8   7   6   2.663788   106.017   320.514
 H      4   3   2   2.009184   178.862   179.254
 H      5   2   1   2.067066   107.921   224.694
 H      6   5   2   2.063364   110.377   242.439
 H      6   5   2   2.062191   110.795     2.652
 H      7   6   5   2.064033   113.967   139.708
 H      7   6   5   2.081119   110.545   262.159
 H      9   8   7   2.084216   110.909   281.859
 H      9   8   7   2.062770   108.608   162.532

---------------------
BASIS SET INFORMATION
---------------------
There are 3 groups of distinct atoms

 Group   1 Type O   : 11s6p2d1f contracted to 5s3p2d1f pattern {62111/411/11/1}
 Group   2 Type C   : 11s6p2d1f contracted to 5s3p2d1f pattern {62111/411/11/1}
 Group   3 Type H   : 5s1p contracted to 3s1p pattern {311/1}

Atom   0O    basis set group =>   1
Atom   1C    basis set group =>   2
Atom   2C    basis set group =>   2
Atom   3C    basis set group =>   2
Atom   4C    basis set group =>   2
Atom   5C    basis set group =>   2
Atom   6C    basis set group =>   2
Atom   7O    basis set group =>   1
Atom   8C    basis set group =>   2
Atom   9H    basis set group =>   3
Atom  10H    basis set group =>   3
Atom  11H    basis set group =>   3
Atom  12H    basis set group =>   3
Atom  13H    basis set group =>   3
Atom  14H    basis set group =>   3
Atom  15H    basis set group =>   3
Atom  16H    basis set group =>   3
-------------------------------
AUXILIARY BASIS SET INFORMATION
-------------------------------
There are 3 groups of distinct atoms

 Group   1 Type O   : 14s10p6d2f1g contracted to 10s8p4d2f1g pattern {5111111111/31111111/3111/11/1}
 Group   2 Type C   : 14s10p6d2f1g contracted to 10s8p5d1f1g pattern {5111111111/31111111/21111/2/1}
 Group   3 Type H   : 4s2p2d contracted to 2s2p2d pattern {31/11/11}

Atom   0O    basis set group =>   1
Atom   1C    basis set group =>   2
Atom   2C    basis set group =>   2
Atom   3C    basis set group =>   2
Atom   4C    basis set group =>   2
Atom   5C    basis set group =>   2
Atom   6C    basis set group =>   2
Atom   7O    basis set group =>   1
Atom   8C    basis set group =>   2
Atom   9H    basis set group =>   3
Atom  10H    basis set group =>   3
Atom  11H    basis set group =>   3
Atom  12H    basis set group =>   3
Atom  13H    basis set group =>   3
Atom  14H    basis set group =>   3
Atom  15H    basis set group =>   3
Atom  16H    basis set group =>   3
------------------------------------------------------------------------------
                           ORCA GTO INTEGRAL CALCULATION
                           -- RI-GTO INTEGRALS CHOSEN --
------------------------------------------------------------------------------

                         BASIS SET STATISTICS AND STARTUP INFO

Gaussian basis set:
 # of primitive gaussian shells          ...  228
 # of primitive gaussian functions       ...  478
 # of contracted shells                  ...  131
 # of contracted basis functions         ...  327
 Highest angular momentum                ...    3
 Maximum contraction depth               ...    6
Auxiliary gaussian basis set:
 # of primitive gaussian shells          ...  361
 # of primitive gaussian functions       ... 1033
 # of contracted shells                  ...  273
 # of contracted aux-basis functions     ...  823
 Highest angular momentum                ...    4
 Maximum contraction depth               ...    5
Ratio of auxiliary to basis functions    ...  2.52
Integral package used                  ... LIBINT
 One Electron integrals                  ... done
 Ordering auxiliary basis shells         ... done
 Integral threshhold             Thresh  ...  2.500e-11
 Primitive cut-off               TCut    ...  2.500e-12
 Pre-screening matrix                    ... done
 Shell pair data                         ... 
 Ordering of the shell pairs             ... done (   0.001 sec) 7812 of 8646 pairs
 Determination of significant pairs      ... done (   0.000 sec)
 Creation of shell pair data             ... done (   0.002 sec)
 Storage of shell pair data              ... done (   0.002 sec)
 Shell pair data done in (   0.005 sec)
 Computing two index integrals           ... done
 Cholesky decomposition of the V-matrix  ... done


Timings:
 Total evaluation time                   ...   0.396 sec (  0.007 min)
 One electron matrix time                ...   0.082 sec (  0.001 min) = 20.7%
 Schwartz matrix evaluation time         ...   0.225 sec (  0.004 min) = 56.7%
 Two index repulsion integral time       ...   0.022 sec (  0.000 min) =  5.5%
 Cholesky decomposition of V             ...   0.034 sec (  0.001 min) =  8.6%
 Three index repulsion integral time     ...   0.000 sec (  0.000 min) =  0.0%

-------------------------------------------------------------------------------
                                 ORCA SCF
-------------------------------------------------------------------------------

------------
SCF SETTINGS
------------
Hamiltonian:
 Ab initio Hamiltonian  Method          .... Hartree-Fock(GTOs)
 RI-approximation to the Coulomb term is turned on
   Number of auxiliary basis functions  .... 823
   RI-JK (J+K treated both via RI)      .... on


General Settings:
 Integral files         IntName         .... dsgdb9nsd_042315
 Hartree-Fock type      HFTyp           .... RHF
 Total Charge           Charge          ....    0
 Multiplicity           Mult            ....    1
 Number of Electrons    NEL             ....   66
 Basis Dimension        Dim             ....  327
 Nuclear Repulsion      ENuc            ....    423.4976845793 Eh

Convergence Acceleration:
 DIIS                   CNVDIIS         .... on
   Start iteration      DIISMaxIt       ....    12
   Startup error        DIISStart       ....  0.200000
   # of expansion vecs  DIISMaxEq       ....     5
   Bias factor          DIISBfac        ....   1.050
   Max. coefficient     DIISMaxC        ....  10.000
 Newton-Raphson         CNVNR           .... off
 SOSCF                  CNVSOSCF        .... on
   Start iteration      SOSCFMaxIt      ....   150
   Startup grad/error   SOSCFStart      ....  0.003300
 Level Shifting         CNVShift        .... on
   Level shift para.    LevelShift      ....    0.2500
   Turn off err/grad.   ShiftErr        ....    0.0010
 Zerner damping         CNVZerner       .... off
 Static damping         CNVDamp         .... on
   Fraction old density DampFac         ....    0.7000
   Max. Damping (<1)    DampMax         ....    0.9800
   Min. Damping (>=0)   DampMin         ....    0.0000
   Turn off err/grad.   DampErr         ....    0.1000
 Fernandez-Rico         CNVRico         .... off

SCF Procedure:
 Maximum # iterations   MaxIter         ....   125
 SCF integral mode      SCFMode         .... Direct
   Integral package                     .... LIBINT
 Reset frequeny         DirectResetFreq ....    20
 Integral Threshold     Thresh          ....  2.500e-11 Eh
 Primitive CutOff       TCut            ....  2.500e-12 Eh

Convergence Tolerance:
 Convergence Check Mode ConvCheckMode   .... Total+1el-Energy
 Energy Change          TolE            ....  1.000e-08 Eh
 1-El. energy change                    ....  1.000e-05 Eh
 Orbital Gradient       TolG            ....  1.000e-05
 Orbital Rotation angle TolX            ....  1.000e-05
 DIIS Error             TolErr          ....  5.000e-07


Diagonalization of the overlap matrix:
Smallest eigenvalue                        ... 1.906e-05
Time for diagonalization                   ...    0.033 sec
Threshold for overlap eigenvalues          ... 1.000e-08
Number of eigenvalues below threshold      ... 0
Time for construction of square roots      ...    0.017 sec
Total time needed                          ...    0.050 sec

-------------------
DFT GRID GENERATION
-------------------

General Integration Accuracy     IntAcc      ...  4.340
Radial Grid Type                 RadialGrid  ... Gauss-Chebyshev
Angular Grid (max. acc.)         AngularGrid ... Lebedev-110
Angular grid pruning method      GridPruning ... 3 (G Style)
Weight generation scheme         WeightScheme... Becke
Basis function cutoff            BFCut       ...    1.0000e-11
Integration weight cutoff        WCut        ...    1.0000e-14
Grids for H and He will be reduced by one unit

# of grid points (after initial pruning)     ...  21376 (   0.0 sec)
# of grid points (after weights+screening)   ...  19730 (   0.1 sec)
nearest neighbour list constructed           ...    0.0 sec
Grid point re-assignment to atoms done       ...    0.0 sec
Grid point division into batches done        ...    0.0 sec
Reduced shell lists constructed in    1.5 sec

Total number of grid points                  ...    19730
Total number of batches                      ...      316
Average number of points per batch           ...       62
Average number of grid points per atom       ...     1161
Average number of shells per batch           ...    86.97 (66.39%)
Average number of basis functions per batch  ...   221.88 (67.85%)
Average number of large shells per batch     ...    67.87 (78.04%)
Average number of large basis fcns per batch ...   171.06 (77.10%)
Average number of aux-shells per batch       ...    86.97 (31.86%)
Average number of aux functions per batch    ...   221.88 (  inf%)
Maximum spatial batch extension              ...  20.54, 28.28, 20.91 au
Average spatial batch extension              ...   3.77,  3.92,  4.09 au

Time for grid setup =    1.639 sec

------------------------------
INITIAL GUESS: MODEL POTENTIAL
------------------------------
Loading Hartree-Fock densities                     ... done
Calculating cut-offs                               ... done
Setting up the integral package                    ... done
Initializing the effective Hamiltonian             ... done
Starting the Coulomb interaction                   ... done (   0.6 sec)
Reading the grid                                   ... done
Mapping shells                                     ... done
Starting the XC term evaluation                    ... done (   0.6 sec)
Transforming the Hamiltonian                       ... done (   0.0 sec)
Diagonalizing the Hamiltonian                      ... done (   0.0 sec)
Back transforming the eigenvectors                 ... done (   0.0 sec)
Now organizing SCF variables                       ... done
                      ------------------
                      INITIAL GUESS DONE (   3.1 sec)
                      ------------------
--------------
SCF ITERATIONS
--------------
ITER       Energy         Delta-E        Max-DP      RMS-DP      [F,P]     Damp
  0   -419.1757350545   0.000000000000 0.08090873  0.00113084  0.2965250 0.7000
  1   -419.0349245839   0.140810470587 0.06309618  0.00112288  0.2655584 0.7000
                               ***Turning on DIIS***
  2   -419.0714067924  -0.036482208508 0.02955051  0.00081552  0.1862955 0.7000
  3   -420.0806578390  -1.009251046608 0.02785451  0.00050090  0.1324798 0.7000
  4   -419.5224336282   0.558224210796 0.08519560  0.00132009  0.0854992 0.0000
  5   -419.5835194700  -0.061085841770 0.01378389  0.00025665  0.0477487 0.0000
  6   -419.4712743923   0.112245077664 0.00683761  0.00013278  0.0133683 0.0000
  7   -419.4816968669  -0.010422474635 0.00272825  0.00005759  0.0075954 0.0000
  8   -419.4754438906   0.006252976345 0.00275267  0.00004722  0.0064206 0.0000
                      *** Initiating the SOSCF procedure ***
                           *** Shutting down DIIS ***
                      *** Re-Reading the Fockian *** 
                      *** Removing any level shift *** 
ITER      Energy       Delta-E        Grad      Rot      Max-DP    RMS-DP
  9   -419.52301462  -0.0475707331  0.000566  0.000566  0.000753  0.000015
 10   -419.52851415  -0.0054995262  0.000316  0.000493  0.000537  0.000010
 11   -419.52851652  -0.0000023666  0.000147  0.000753  0.001083  0.000016
 12   -419.52851766  -0.0000011393  0.000072  0.000098  0.000105  0.000003
 13   -419.52851778  -0.0000001288  0.000035  0.000051  0.000039  0.000001
 14   -419.52851780  -0.0000000194  0.000012  0.000037  0.000020  0.000001
 15   -419.52851781  -0.0000000065  0.000008  0.000037  0.000018  0.000000
                  ***Gradient check signals convergence***
              ***Rediagonalizing the Fockian in SOSCF/NRSCF***

               *****************************************************
               *                     SUCCESS                       *
               *           SCF CONVERGED AFTER  16 CYCLES          *
               *****************************************************


----------------
TOTAL SCF ENERGY
----------------

Total Energy       :         -419.52851781 Eh          -11415.95135 eV

Components:
Nuclear Repulsion  :          423.49768458 Eh           11523.95786 eV
Electronic Energy  :         -843.02620239 Eh          -22939.90921 eV

One Electron Energy:        -1410.94562065 Eh          -38393.78224 eV
Two Electron Energy:          567.91941826 Eh           15453.87303 eV

Virial components:
Potential Energy   :         -838.48185889 Eh          -22816.25134 eV
Kinetic Energy     :          418.95334108 Eh           11400.29999 eV
Virial Ratio       :            2.00137289


---------------
SCF CONVERGENCE
---------------

  Last Energy change         ...   -1.9490e-09  Tolerance :   1.0000e-08
  Last MAX-Density change    ...    6.8386e-06  Tolerance :   1.0000e-07
  Last RMS-Density change    ...    1.5959e-07  Tolerance :   5.0000e-09
  Last Orbital Gradient      ...    2.1699e-06  Tolerance :   1.0000e-05
  Last Orbital Rotation      ...    7.5157e-06  Tolerance :   1.0000e-05

             **** THE GBW FILE WAS UPDATED (dsgdb9nsd_042315.gbw) ****
             **** DENSITY FILE WAS UPDATED (dsgdb9nsd_042315.scfp.tmp) ****
             **** ENERGY FILE WAS UPDATED (dsgdb9nsd_042315.en.tmp) ****
----------------
ORBITAL ENERGIES
----------------

  NO   OCC          E(Eh)            E(eV) 
   0   2.0000     -20.568833      -559.7064 
   1   2.0000     -20.563096      -559.5503 
   2   2.0000     -11.366051      -309.2860 
   3   2.0000     -11.291391      -307.2544 
   4   2.0000     -11.279481      -306.9303 
   5   2.0000     -11.268822      -306.6402 
   6   2.0000     -11.258859      -306.3691 
   7   2.0000     -11.256327      -306.3002 
   8   2.0000     -11.232140      -305.6421 
   9   2.0000      -1.410930       -38.3934 
  10   2.0000      -1.390995       -37.8509 
  11   2.0000      -1.095864       -29.8200 
  12   2.0000      -1.058863       -28.8131 
  13   2.0000      -1.007372       -27.4120 
  14   2.0000      -0.911837       -24.8123 
  15   2.0000      -0.837585       -22.7919 
  16   2.0000      -0.805703       -21.9243 
  17   2.0000      -0.740450       -20.1487 
  18   2.0000      -0.715590       -19.4722 
  19   2.0000      -0.694830       -18.9073 
  20   2.0000      -0.666390       -18.1334 
  21   2.0000      -0.635893       -17.3035 
  22   2.0000      -0.620999       -16.8982 
  23   2.0000      -0.575076       -15.6486 
  24   2.0000      -0.563103       -15.3228 
  25   2.0000      -0.535472       -14.5709 
  26   2.0000      -0.505589       -13.7578 
  27   2.0000      -0.489721       -13.3260 
  28   2.0000      -0.476023       -12.9533 
  29   2.0000      -0.447704       -12.1827 
  30   2.0000      -0.431592       -11.7442 
  31   2.0000      -0.426209       -11.5977 
  32   2.0000      -0.424642       -11.5551 
  33   0.0000       0.076968         2.0944 
  34   0.0000       0.134765         3.6671 
  35   0.0000       0.149116         4.0576 
  36   0.0000       0.158713         4.3188 
  37   0.0000       0.163042         4.4366 
  38   0.0000       0.170746         4.6462 
  39   0.0000       0.199962         5.4412 
  40   0.0000       0.206249         5.6123 
  41   0.0000       0.207315         5.6413 
  42   0.0000       0.214141         5.8271 
  43   0.0000       0.238784         6.4977 
  44   0.0000       0.251420         6.8415 
  45   0.0000       0.255083         6.9412 
  46   0.0000       0.267570         7.2809 
  47   0.0000       0.287936         7.8351 
  48   0.0000       0.291479         7.9315 
  49   0.0000       0.314613         8.5611 
  50   0.0000       0.321391         8.7455 
  51   0.0000       0.333687         9.0801 
  52   0.0000       0.350249         9.5308 
  53   0.0000       0.357633         9.7317 
  54   0.0000       0.364450         9.9172 
  55   0.0000       0.390084        10.6147 
  56   0.0000       0.397962        10.8291 
  57   0.0000       0.432456        11.7677 
  58   0.0000       0.443375        12.0648 
  59   0.0000       0.458010        12.4631 
  60   0.0000       0.459800        12.5118 
  61   0.0000       0.472503        12.8575 
  62   0.0000       0.481205        13.0943 
  63   0.0000       0.502294        13.6681 
  64   0.0000       0.505556        13.7569 
  65   0.0000       0.519559        14.1379 
  66   0.0000       0.538582        14.6556 
  67   0.0000       0.546915        14.8823 
  68   0.0000       0.561946        15.2913 
  69   0.0000       0.571705        15.5569 
  70   0.0000       0.575229        15.6528 
  71   0.0000       0.581778        15.8310 
  72   0.0000       0.588852        16.0235 
  73   0.0000       0.599583        16.3155 
  74   0.0000       0.609144        16.5756 
  75   0.0000       0.612154        16.6576 
  76   0.0000       0.626512        17.0483 
  77   0.0000       0.640098        17.4179 
  78   0.0000       0.656336        17.8598 
  79   0.0000       0.669566        18.2198 
  80   0.0000       0.681725        18.5507 
  81   0.0000       0.693470        18.8703 
  82   0.0000       0.710933        19.3455 
  83   0.0000       0.729246        19.8438 
  84   0.0000       0.735933        20.0258 
  85   0.0000       0.744178        20.2501 
  86   0.0000       0.778010        21.1707 
  87   0.0000       0.796065        21.6620 
  88   0.0000       0.804437        21.8899 
  89   0.0000       0.819337        22.2953 
  90   0.0000       0.840776        22.8787 
  91   0.0000       0.859743        23.3948 
  92   0.0000       0.862558        23.4714 
  93   0.0000       0.882449        24.0127 
  94   0.0000       0.908249        24.7147 
  95   0.0000       0.922943        25.1146 
  96   0.0000       0.938498        25.5378 
  97   0.0000       0.950300        25.8590 
  98   0.0000       0.973016        26.4771 
  99   0.0000       1.008751        27.4495 
 100   0.0000       1.028811        27.9954 
 101   0.0000       1.064554        28.9680 
 102   0.0000       1.094812        29.7913 
 103   0.0000       1.099085        29.9076 
 104   0.0000       1.112952        30.2850 
 105   0.0000       1.134222        30.8637 
 106   0.0000       1.141423        31.0597 
 107   0.0000       1.159605        31.5545 
 108   0.0000       1.178971        32.0814 
 109   0.0000       1.197596        32.5882 
 110   0.0000       1.226288        33.3690 
 111   0.0000       1.237217        33.6664 
 112   0.0000       1.242107        33.7994 
 113   0.0000       1.255171        34.1549 
 114   0.0000       1.292966        35.1834 
 115   0.0000       1.296191        35.2711 
 116   0.0000       1.313107        35.7315 
 117   0.0000       1.323339        36.0099 
 118   0.0000       1.329647        36.1815 
 119   0.0000       1.346313        36.6350 
 120   0.0000       1.372424        37.3456 
 121   0.0000       1.414351        38.4864 
 122   0.0000       1.429182        38.8900 
 123   0.0000       1.450684        39.4751 
 124   0.0000       1.487341        40.4726 
 125   0.0000       1.502533        40.8860 
 126   0.0000       1.526813        41.5467 
 127   0.0000       1.589907        43.2636 
 128   0.0000       1.596710        43.4487 
 129   0.0000       1.627632        44.2901 
 130   0.0000       1.667822        45.3838 
 131   0.0000       1.696930        46.1758 
 132   0.0000       1.727103        46.9969 
 133   0.0000       1.740653        47.3656 
 134   0.0000       1.781824        48.4859 
 135   0.0000       1.786953        48.6255 
 136   0.0000       1.811932        49.3052 
 137   0.0000       1.813275        49.3417 
 138   0.0000       1.838599        50.0308 
 139   0.0000       1.857451        50.5438 
 140   0.0000       1.865588        50.7652 
 141   0.0000       1.870926        50.9105 
 142   0.0000       1.880514        51.1714 
 143   0.0000       1.890845        51.4525 
 144   0.0000       1.901682        51.7474 
 145   0.0000       1.929631        52.5079 
 146   0.0000       1.958473        53.2927 
 147   0.0000       1.991898        54.2023 
 148   0.0000       2.007672        54.6315 
 149   0.0000       2.042054        55.5671 
 150   0.0000       2.062256        56.1168 
 151   0.0000       2.069131        56.3039 
 152   0.0000       2.086649        56.7806 
 153   0.0000       2.106821        57.3295 
 154   0.0000       2.108595        57.3778 
 155   0.0000       2.126994        57.8785 
 156   0.0000       2.153808        58.6081 
 157   0.0000       2.172559        59.1183 
 158   0.0000       2.199384        59.8483 
 159   0.0000       2.223269        60.4982 
 160   0.0000       2.269189        61.7478 
 161   0.0000       2.289458        62.2993 
 162   0.0000       2.292473        62.3814 
 163   0.0000       2.305424        62.7338 
 164   0.0000       2.326239        63.3002 
 165   0.0000       2.346546        63.8528 
 166   0.0000       2.384461        64.8845 
 167   0.0000       2.398432        65.2647 
 168   0.0000       2.427983        66.0688 
 169   0.0000       2.488934        67.7273 
 170   0.0000       2.509610        68.2900 
 171   0.0000       2.534455        68.9660 
 172   0.0000       2.549291        69.3697 
 173   0.0000       2.568029        69.8796 
 174   0.0000       2.612009        71.0764 
 175   0.0000       2.619064        71.2683 
 176   0.0000       2.659030        72.3559 
 177   0.0000       2.668495        72.6134 
 178   0.0000       2.691745        73.2461 
 179   0.0000       2.697573        73.4047 
 180   0.0000       2.748448        74.7891 
 181   0.0000       2.769016        75.3488 
 182   0.0000       2.773602        75.4736 
 183   0.0000       2.792703        75.9933 
 184   0.0000       2.805163        76.3324 
 185   0.0000       2.821825        76.7858 
 186   0.0000       2.826626        76.9164 
 187   0.0000       2.841815        77.3297 
 188   0.0000       2.850604        77.5689 
 189   0.0000       2.871516        78.1379 
 190   0.0000       2.875707        78.2520 
 191   0.0000       2.893158        78.7268 
 192   0.0000       2.917068        79.3774 
 193   0.0000       2.948392        80.2298 
 194   0.0000       2.957800        80.4858 
 195   0.0000       2.995766        81.5189 
 196   0.0000       3.004059        81.7446 
 197   0.0000       3.018677        82.1424 
 198   0.0000       3.060288        83.2747 
 199   0.0000       3.066703        83.4492 
 200   0.0000       3.081140        83.8421 
 201   0.0000       3.099726        84.3478 
 202   0.0000       3.122893        84.9782 
 203   0.0000       3.133785        85.2746 
 204   0.0000       3.144561        85.5679 
 205   0.0000       3.159847        85.9838 
 206   0.0000       3.199806        87.0712 
 207   0.0000       3.206641        87.2571 
 208   0.0000       3.212702        87.4221 
 209   0.0000       3.225733        87.7767 
 210   0.0000       3.229360        87.8753 
 211   0.0000       3.250920        88.4620 
 212   0.0000       3.273015        89.0633 
 213   0.0000       3.288344        89.4804 
 214   0.0000       3.290580        89.5412 
 215   0.0000       3.299687        89.7891 
 216   0.0000       3.330841        90.6368 
 217   0.0000       3.337696        90.8233 
 218   0.0000       3.373180        91.7889 
 219   0.0000       3.378194        91.9253 
 220   0.0000       3.383117        92.0593 
 221   0.0000       3.396902        92.4344 
 222   0.0000       3.447247        93.8044 
 223   0.0000       3.452498        93.9472 
 224   0.0000       3.465481        94.3005 
 225   0.0000       3.474043        94.5335 
 226   0.0000       3.478692        94.6600 
 227   0.0000       3.513725        95.6133 
 228   0.0000       3.534704        96.1842 
 229   0.0000       3.542417        96.3941 
 230   0.0000       3.567861        97.0864 
 231   0.0000       3.591655        97.7339 
 232   0.0000       3.595750        97.8453 
 233   0.0000       3.621378        98.5427 
 234   0.0000       3.627215        98.7015 
 235   0.0000       3.640588        99.0654 
 236   0.0000       3.662663        99.6661 
 237   0.0000       3.678617       100.1002 
 238   0.0000       3.696497       100.5868 
 239   0.0000       3.700127       100.6856 
 240   0.0000       3.744969       101.9058 
 241   0.0000       3.748537       102.0029 
 242   0.0000       3.786211       103.0280 
 243   0.0000       3.795995       103.2943 
 244   0.0000       3.825930       104.1088 
 245   0.0000       3.842703       104.5653 
 246   0.0000       3.863056       105.1191 
 247   0.0000       3.892033       105.9076 
 248   0.0000       3.905705       106.2796 
 249   0.0000       3.910750       106.4169 
 250   0.0000       3.956292       107.6562 
 251   0.0000       3.962425       107.8231 
 252   0.0000       3.981499       108.3421 
 253   0.0000       4.010072       109.1196 
 254   0.0000       4.033819       109.7658 
 255   0.0000       4.104669       111.6937 
 256   0.0000       4.108588       111.8004 
 257   0.0000       4.139355       112.6376 
 258   0.0000       4.154929       113.0614 
 259   0.0000       4.179299       113.7245 
 260   0.0000       4.217654       114.7682 
 261   0.0000       4.232669       115.1768 
 262   0.0000       4.269870       116.1891 
 263   0.0000       4.277622       116.4000 
 264   0.0000       4.342406       118.1629 
 265   0.0000       4.354276       118.4859 
 266   0.0000       4.433912       120.6529 
 267   0.0000       4.451495       121.1313 
 268   0.0000       4.470639       121.6523 
 269   0.0000       4.492517       122.2476 
 270   0.0000       4.562617       124.1551 
 271   0.0000       4.585236       124.7706 
 272   0.0000       4.614632       125.5705 
 273   0.0000       4.642067       126.3171 
 274   0.0000       4.690909       127.6461 
 275   0.0000       4.702971       127.9743 
 276   0.0000       4.730365       128.7198 
 277   0.0000       4.798350       130.5697 
 278   0.0000       4.849832       131.9706 
 279   0.0000       4.906397       133.5099 
 280   0.0000       4.933840       134.2566 
 281   0.0000       5.023807       136.7047 
 282   0.0000       5.043013       137.2274 
 283   0.0000       5.121182       139.3544 
 284   0.0000       5.162486       140.4784 
 285   0.0000       5.190174       141.2318 
 286   0.0000       5.236874       142.5026 
 287   0.0000       5.244414       142.7078 
 288   0.0000       5.281172       143.7080 
 289   0.0000       5.319629       144.7545 
 290   0.0000       5.371965       146.1786 
 291   0.0000       5.436077       147.9232 
 292   0.0000       5.568418       151.5244 
 293   0.0000       5.652113       153.8018 
 294   0.0000       5.660392       154.0271 
 295   0.0000       5.864947       159.5933 
 296   0.0000       5.882904       160.0819 
 297   0.0000       5.922623       161.1628 
 298   0.0000       6.057198       164.8247 
 299   0.0000       6.204048       168.8207 
 300   0.0000       6.241632       169.8434 
 301   0.0000       6.267210       170.5395 
 302   0.0000       6.290975       171.1861 
 303   0.0000       6.623653       180.2387 
 304   0.0000       6.637346       180.6114 
 305   0.0000       6.680499       181.7856 
 306   0.0000       6.848000       186.3436 
 307   0.0000       6.911702       188.0770 
 308   0.0000       7.098252       193.1533 
 309   0.0000       7.110455       193.4853 
 310   0.0000       7.246723       197.1934 
 311   0.0000       7.306246       198.8131 
 312   0.0000       7.318578       199.1486 
 313   0.0000       7.380737       200.8401 
 314   0.0000       7.556941       205.6348 
 315   0.0000       7.603706       206.9073 
 316   0.0000       7.708519       209.7595 
 317   0.0000       7.788817       211.9445 
 318   0.0000      23.413373       637.1103 
 319   0.0000      23.567413       641.3019 
 320   0.0000      23.628574       642.9662 
 321   0.0000      23.677965       644.3102 
 322   0.0000      23.737228       645.9228 
 323   0.0000      24.307508       661.4409 
 324   0.0000      24.611081       669.7016 
 325   0.0000      45.476072      1237.4668 
 326   0.0000      45.681414      1243.0545 

                    ********************************
                    * MULLIKEN POPULATION ANALYSIS *
                    ********************************

-----------------------
MULLIKEN ATOMIC CHARGES
-----------------------
   0 O :   -0.413614
   1 C :    0.047713
   2 C :   -0.029507
   3 C :    0.009451
   4 C :    0.052507
   5 C :   -0.215854
   6 C :    0.038181
   7 O :   -0.402046
   8 C :   -0.019090
   9 H :    0.214239
  10 H :    0.104500
  11 H :    0.094783
  12 H :    0.142886
  13 H :    0.098802
  14 H :    0.078221
  15 H :    0.088127
  16 H :    0.110700
Sum of atomic charges:    0.0000000

--------------------------------
MULLIKEN REDUCED ORBITAL CHARGES
--------------------------------
  0 O s       :     3.851560  s :     3.851560
      pz      :     1.337024  p :     4.522387
      px      :     1.834503
      py      :     1.350860
      dz2     :     0.003337  d :     0.037497
      dxz     :     0.000065
      dyz     :     0.013901
      dx2y2   :     0.011962
      dxy     :     0.008233
      f0      :     0.000190  f :     0.002170
      f+1     :     0.000015
      f-1     :     0.000229
      f+2     :     0.000541
      f-2     :     0.000006
      f+3     :     0.000549
      f-3     :     0.000640
  1 C s       :     3.289760  s :     3.289760
      pz      :     0.667842  p :     2.405644
      px      :     0.972850
      py      :     0.764952
      dz2     :     0.007965  d :     0.238302
      dxz     :     0.014947
      dyz     :     0.058409
      dx2y2   :     0.042146
      dxy     :     0.114835
      f0      :     0.002285  f :     0.018582
      f+1     :     0.000982
      f-1     :     0.001267
      f+2     :     0.002845
      f-2     :     0.000880
      f+3     :     0.006935
      f-3     :     0.003387
  2 C s       :     3.404717  s :     3.404717
      pz      :     1.022575  p :     2.509395
      px      :     0.703402
      py      :     0.783418
      dz2     :     0.010707  d :     0.102789
      dxz     :     0.014269
      dyz     :     0.009081
      dx2y2   :     0.036884
      dxy     :     0.031848
      f0      :     0.001549  f :     0.012606
      f+1     :     0.001068
      f-1     :     0.000629
      f+2     :     0.000592
      f-2     :     0.002405
      f+3     :     0.004294
      f-3     :     0.002070
  3 C s       :     3.027738  s :     3.027738
      pz      :     0.882122  p :     2.940788
      px      :     1.046935
      py      :     1.011732
      dz2     :    -0.001924  d :     0.013691
      dxz     :     0.008889
      dyz     :     0.003869
      dx2y2   :     0.008588
      dxy     :    -0.005730
      f0      :     0.000885  f :     0.008332
      f+1     :     0.000823
      f-1     :     0.000425
      f+2     :     0.000353
      f-2     :     0.001497
      f+3     :     0.002568
      f-3     :     0.001781
  4 C s       :     2.974969  s :     2.974969
      pz      :     0.957832  p :     2.845056
      px      :     0.932205
      py      :     0.955019
      dz2     :     0.025035  d :     0.119270
      dxz     :     0.018709
      dyz     :     0.025080
      dx2y2   :     0.023130
      dxy     :     0.027317
      f0      :     0.001180  f :     0.008198
      f+1     :     0.001136
      f-1     :     0.001138
      f+2     :     0.000692
      f-2     :     0.001097
      f+3     :     0.001134
      f-3     :     0.001820
  5 C s       :     3.170476  s :     3.170476
      pz      :     0.985235  p :     2.949368
      px      :     0.918668
      py      :     1.045465
      dz2     :     0.019224  d :     0.089393
      dxz     :     0.023204
      dyz     :     0.010456
      dx2y2   :     0.022221
      dxy     :     0.014288
      f0      :     0.000580  f :     0.006617
      f+1     :     0.001504
      f-1     :     0.000860
      f+2     :     0.000675
      f-2     :     0.001098
      f+3     :     0.000874
      f-3     :     0.001027
  6 C s       :     3.163371  s :     3.163371
      pz      :     0.903785  p :     2.652066
      px      :     0.998641
      py      :     0.749641
      dz2     :     0.023214  d :     0.135143
      dxz     :     0.019681
      dyz     :     0.039149
      dx2y2   :     0.035779
      dxy     :     0.017320
      f0      :     0.001052  f :     0.011239
      f+1     :     0.001026
      f-1     :     0.002341
      f+2     :     0.002334
      f-2     :     0.001538
      f+3     :     0.001612
      f-3     :     0.001336
  7 O s       :     3.787169  s :     3.787169
      pz      :     1.780087  p :     4.570848
      px      :     1.293455
      py      :     1.497305
      dz2     :     0.005505  d :     0.041965
      dxz     :     0.004840
      dyz     :     0.006988
      dx2y2   :     0.017239
      dxy     :     0.007393
      f0      :     0.000292  f :     0.002064
      f+1     :     0.000323
      f-1     :     0.000206
      f+2     :     0.000351
      f-2     :     0.000194
      f+3     :     0.000420
      f-3     :     0.000279
  8 C s       :     3.195756  s :     3.195756
      pz      :     0.947760  p :     2.672092
      px      :     0.681915
      py      :     1.042417
      dz2     :     0.019480  d :     0.139770
      dxz     :     0.041800
      dyz     :     0.021597
      dx2y2   :     0.023958
      dxy     :     0.032936
      f0      :     0.001752  f :     0.011472
      f+1     :     0.001454
      f-1     :     0.001454
      f+2     :     0.002306
      f-2     :     0.000496
      f+3     :     0.001925
      f-3     :     0.002086
  9 H s       :     0.761348  s :     0.761348
      pz      :     0.003221  p :     0.024413
      px      :     0.013546
      py      :     0.007646
 10 H s       :     0.872073  s :     0.872073
      pz      :     0.008723  p :     0.023427
      px      :     0.004011
      py      :     0.010693
 11 H s       :     0.882712  s :     0.882712
      pz      :     0.012733  p :     0.022505
      px      :     0.005074
      py      :     0.004698
 12 H s       :     0.834121  s :     0.834121
      pz      :     0.003705  p :     0.022993
      px      :     0.004538
      py      :     0.014750
 13 H s       :     0.879615  s :     0.879615
      pz      :     0.004304  p :     0.021583
      px      :     0.014717
      py      :     0.002562
 14 H s       :     0.900675  s :     0.900675
      pz      :     0.008259  p :     0.021104
      px      :     0.003220
      py      :     0.009625
 15 H s       :     0.890673  s :     0.890673
      pz      :     0.010713  p :     0.021200
      px      :     0.003427
      py      :     0.007060
 16 H s       :     0.867521  s :     0.867521
      pz      :     0.003859  p :     0.021779
      px      :     0.003910
      py      :     0.014010


                     *******************************
                     * LOEWDIN POPULATION ANALYSIS *
                     *******************************

----------------------
LOEWDIN ATOMIC CHARGES
----------------------
   0 O :    0.104306
   1 C :   -0.255071
   2 C :   -0.057852
   3 C :   -0.032936
   4 C :   -0.183053
   5 C :   -0.200722
   6 C :   -0.261397
   7 O :    0.107428
   8 C :   -0.242694
   9 H :    0.131999
  10 H :    0.155200
  11 H :    0.126785
  12 H :    0.138937
  13 H :    0.116677
  14 H :    0.113133
  15 H :    0.118590
  16 H :    0.120671

-------------------------------
LOEWDIN REDUCED ORBITAL CHARGES
-------------------------------
  0 O s       :     3.399103  s :     3.399103
      pz      :     1.259738  p :     4.421803
      px      :     1.668360
      py      :     1.493705
      dz2     :     0.007628  d :     0.069052
      dxz     :     0.000099
      dyz     :     0.013867
      dx2y2   :     0.025652
      dxy     :     0.021807
      f0      :     0.000334  f :     0.005737
      f+1     :     0.000135
      f-1     :     0.000849
      f+2     :     0.000688
      f-2     :     0.000016
      f+3     :     0.001960
      f-3     :     0.001755
  1 C s       :     2.744594  s :     2.744594
      pz      :     0.641402  p :     2.607213
      px      :     0.981586
      py      :     0.984225
      dz2     :     0.050485  d :     0.790632
      dxz     :     0.058611
      dyz     :     0.147341
      dx2y2   :     0.205090
      dxy     :     0.329105
      f0      :     0.007983  f :     0.112632
      f+1     :     0.004256
      f-1     :     0.009616
      f+2     :     0.017177
      f-2     :     0.006137
      f+3     :     0.049458
      f-3     :     0.018005
  2 C s       :     2.804674  s :     2.804674
      pz      :     0.924749  p :     2.918541
      px      :     1.052066
      py      :     0.941726
      dz2     :     0.028596  d :     0.289575
      dxz     :     0.048360
      dyz     :     0.027708
      dx2y2   :     0.107834
      dxy     :     0.077077
      f0      :     0.004127  f :     0.045063
      f+1     :     0.005470
      f-1     :     0.002843
      f+2     :     0.001481
      f-2     :     0.006490
      f+3     :     0.011847
      f-3     :     0.012805
  3 C s       :     2.889891  s :     2.889891
      pz      :     0.863335  p :     2.958341
      px      :     1.076297
      py      :     1.018710
      dz2     :     0.017116  d :     0.148905
      dxz     :     0.031619
      dyz     :     0.014258
      dx2y2   :     0.038371
      dxy     :     0.047542
      f0      :     0.003619  f :     0.035799
      f+1     :     0.004564
      f-1     :     0.002285
      f+2     :     0.001240
      f-2     :     0.005663
      f+3     :     0.008204
      f-3     :     0.010224
  4 C s       :     2.732758  s :     2.732758
      pz      :     0.992378  p :     2.936305
      px      :     0.959902
      py      :     0.984025
      dz2     :     0.087114  d :     0.464389
      dxz     :     0.071556
      dyz     :     0.104567
      dx2y2   :     0.093867
      dxy     :     0.107286
      f0      :     0.007554  f :     0.049601
      f+1     :     0.008192
      f-1     :     0.004713
      f+2     :     0.006675
      f-2     :     0.005657
      f+3     :     0.008719
      f-3     :     0.008091
  5 C s       :     2.776688  s :     2.776688
      pz      :     1.012971  p :     3.017075
      px      :     0.979791
      py      :     1.024313
      dz2     :     0.086885  d :     0.367788
      dxz     :     0.093569
      dyz     :     0.042304
      dx2y2   :     0.084083
      dxy     :     0.060947
      f0      :     0.004023  f :     0.039171
      f+1     :     0.007433
      f-1     :     0.005123
      f+2     :     0.003697
      f-2     :     0.008207
      f+3     :     0.005851
      f-3     :     0.004835
  6 C s       :     2.797880  s :     2.797880
      pz      :     0.986809  p :     2.858344
      px      :     1.007664
      py      :     0.863871
      dz2     :     0.087362  d :     0.531376
      dxz     :     0.076136
      dyz     :     0.154435
      dx2y2   :     0.149813
      dxy     :     0.063630
      f0      :     0.009022  f :     0.073797
      f+1     :     0.006100
      f-1     :     0.014414
      f+2     :     0.010966
      f-2     :     0.010392
      f+3     :     0.011391
      f-3     :     0.011511
  7 O s       :     3.287712  s :     3.287712
      pz      :     1.657257  p :     4.493665
      px      :     1.338338
      py      :     1.498070
      dz2     :     0.012492  d :     0.104388
      dxz     :     0.016500
      dyz     :     0.014942
      dx2y2   :     0.036452
      dxy     :     0.024001
      f0      :     0.000589  f :     0.006808
      f+1     :     0.000594
      f-1     :     0.000735
      f+2     :     0.001313
      f-2     :     0.000508
      f+3     :     0.001242
      f-3     :     0.001827
  8 C s       :     2.793021  s :     2.793021
      pz      :     1.001721  p :     2.838388
      px      :     0.802690
      py      :     1.033977
      dz2     :     0.090482  d :     0.536141
      dxz     :     0.135803
      dyz     :     0.082172
      dx2y2   :     0.108059
      dxy     :     0.119625
      f0      :     0.011098  f :     0.075144
      f+1     :     0.010817
      f-1     :     0.005888
      f+2     :     0.014862
      f-2     :     0.004337
      f+3     :     0.012601
      f-3     :     0.015541
  9 H s       :     0.797916  s :     0.797916
      pz      :     0.011225  p :     0.070085
      px      :     0.036361
      py      :     0.022499
 10 H s       :     0.786723  s :     0.786723
      pz      :     0.021401  p :     0.058077
      px      :     0.011571
      py      :     0.025105
 11 H s       :     0.814149  s :     0.814149
      pz      :     0.029242  p :     0.059066
      px      :     0.014658
      py      :     0.015166
 12 H s       :     0.799314  s :     0.799314
      pz      :     0.011916  p :     0.061748
      px      :     0.013564
      py      :     0.036268
 13 H s       :     0.826118  s :     0.826118
      pz      :     0.013701  p :     0.057204
      px      :     0.034469
      py      :     0.009034
 14 H s       :     0.830321  s :     0.830321
      pz      :     0.021318  p :     0.056546
      px      :     0.011333
      py      :     0.023896
 15 H s       :     0.824654  s :     0.824654
      pz      :     0.025699  p :     0.056756
      px      :     0.010170
      py      :     0.020887
 16 H s       :     0.821433  s :     0.821433
      pz      :     0.012084  p :     0.057896
      px      :     0.010962
      py      :     0.034850


                      *****************************
                      * MAYER POPULATION ANALYSIS *
                      *****************************

  NA   - Mulliken gross atomic population
  ZA   - Total nuclear charge
  QA   - Mulliken gross atomic charge
  VA   - Mayer's total valence
  BVA  - Mayer's bonded valence
  FA   - Mayer's free valence

  ATOM       NA         ZA         QA         VA         BVA        FA
  0 O      8.4136     8.0000    -0.4136     2.0248     2.0248    -0.0000
  1 C      5.9523     6.0000     0.0477     4.0872     4.0872     0.0000
  2 C      6.0295     6.0000    -0.0295     3.8543     3.8543     0.0000
  3 C      5.9905     6.0000     0.0095     3.5611     3.5611     0.0000
  4 C      5.9475     6.0000     0.0525     3.7125     3.7125    -0.0000
  5 C      6.2159     6.0000    -0.2159     3.9409     3.9409    -0.0000
  6 C      5.9618     6.0000     0.0382     3.9505     3.9505     0.0000
  7 O      8.4020     8.0000    -0.4020     1.8389     1.8389    -0.0000
  8 C      6.0191     6.0000    -0.0191     4.0182     4.0182    -0.0000
  9 H      0.7858     1.0000     0.2142     0.9607     0.9607     0.0000
 10 H      0.8955     1.0000     0.1045     0.9714     0.9714    -0.0000
 11 H      0.9052     1.0000     0.0948     0.9770     0.9770    -0.0000
 12 H      0.8571     1.0000     0.1429     0.9803     0.9803    -0.0000
 13 H      0.9012     1.0000     0.0988     0.9668     0.9668     0.0000
 14 H      0.9218     1.0000     0.0782     0.9713     0.9713     0.0000
 15 H      0.9119     1.0000     0.0881     0.9672     0.9672    -0.0000
 16 H      0.8893     1.0000     0.1107     0.9676     0.9676     0.0000

  Mayer bond orders larger than 0.1
B(  0-O ,  1-C ) :   2.0273 B(  1-C ,  2-C ) :   1.1171 B(  1-C ,  3-C ) :  -0.2048 
B(  1-C ,  4-C ) :   1.0165 B(  2-C ,  3-C ) :   2.8012 B(  3-C ,  9-H ) :   0.9143 
B(  4-C ,  5-C ) :   0.9449 B(  4-C ,  8-C ) :   0.9579 B(  4-C , 10-H ) :   0.9612 
B(  5-C ,  6-C ) :   1.0176 B(  5-C , 11-H ) :   0.9846 B(  5-C , 12-H ) :   0.9699 
B(  6-C ,  7-O ) :   0.9279 B(  6-C , 13-H ) :   0.9776 B(  6-C , 14-H ) :   0.9879 
B(  7-O ,  8-C ) :   0.9504 B(  8-C , 15-H ) :   0.9776 B(  8-C , 16-H ) :   0.9726 


-------
TIMINGS
-------

Total SCF time: 0 days 0 hours 2 min 56 sec 

Total time                  ....     176.454 sec
Sum of individual times     ....     181.023 sec  (102.6%)

Fock matrix formation       ....     174.698 sec  ( 99.0%)
Diagonalization             ....       0.732 sec  (  0.4%)
Density matrix formation    ....       0.051 sec  (  0.0%)
Population analysis         ....       0.230 sec  (  0.1%)
Initial guess               ....       3.113 sec  (  1.8%)
Orbital Transformation      ....       0.000 sec  (  0.0%)
Orbital Orthonormalization  ....       0.000 sec  (  0.0%)
DIIS solution               ....       0.224 sec  (  0.1%)
SOSCF solution              ....       0.336 sec  (  0.2%)

   <<< Auxbasis replaced with dsgdb9nsd_042315.AUXC.tmp (Dim=804) >>> 


------------------------------------------------------------------------------
                              ORCA MP2 CALCULATION
------------------------------------------------------------------------------

Freezing NCore=18 chemical core electrons

   <<< Use J-auxbasis for calculation of Separable RI-J derivative contributions dsgdb9nsd_042315.AUXJ.tmp (Dim=823) >>> 


---------------------
RI-MP2 ENERGY+DENSITY
---------------------
Dimension of the basis                    ...  327
Memory devoted to MP2                     ... 2000 MB   
Data format for buffers                   ... DOUBLE
Compression type for matrix containers    ... UNCOMPRESSED
Overall scaling of the MP2 energy         ...   1.000e+00 Eh
Calculating two index integrals           ... done (    0.018 sec)
Cholesky decomposition of V**-1           ... done (    0.109 sec)

-----------------
RI-TRANSFORMATION (AUX index driven)
-----------------

Dimension of the orbital-basis         ... 327
Dimension of the aux-basis             ... 804
Transformation of internal MOs         ...    0-  32
Transformation of internal/external MOs...    0-  32 to   33- 326
Number Format for Storage              ... Double (8 Byte)
Integral mode                          ... Direct

First Phase: integral generation and transformation of MO indices
  Aux angular momentum 0               ... done (    0.767 sec)
  Aux angular momentum 1               ... done (    1.096 sec)
  Aux angular momentum 2               ... done (    1.162 sec)
  Aux angular momentum 3               ... done (    1.009 sec)
  Aux angular momentum 4               ... done (    0.583 sec)
Closing buffer VIJ ( 0.00 GB; CompressionRatio= 1.94)
Closing buffer VIA ( 0.06 GB; CompressionRatio= 1.00)
  Phase 1 completed in     4.719 sec
Second Phase: sorting and transformation of aux index

IJ-Transformation
Memory available                       ... 1987 MB 
Max. # MO pairs treated in a batch     ... 33    
# of internal orbitals                 ... 33
# batches for internal orbitals        ... 1
Closing buffer IJV ( 0.00 GB; CompressionRatio= 1.00)
(ij|v) transformation done in     0.255 sec

IA-Transformation
Memory available                       ... 1987 MB 
Max. # MO pairs treated in a batch     ... 33    
# of internal orbitals                 ... 33
# batches for internal orbitals        ... 1
Closing buffer IAV ( 0.06 GB; CompressionRatio= 1.00)
(ia|v) transformation done in     2.114 sec

  Phase 2 completed in     2.397 sec
RI-Integral transformation completed in     7.116 sec
Opening buffers                              ... done
Frozen core precalculation                   ... done

Starting loop over batches of integrals:

Operator 0  - window                       ... (  9- 32)x( 33-326)
Operator 0  - Memory available             ...  2000 MB
Operator 0  - Memory needed per MO         ...   3.6 MB
Operator 0  - Number of orbitals per batch ... 24
Operator 0  - Number of batches            ... 1

OPERATOR  0   PASS   0:  MOs     9 ...   32
  Reading integrals       ... ok
  Internal MO  11
  Internal MO  14
  Internal MO  17
  Internal MO  20
  Internal MO  23
  Internal MO  26
  Internal MO  29
  Internal MO  32
Time spent in pair loops =    54.811 sec
Deleting buffer (Ka|jb)[aa] ...done

-----------------------------------------------
 RI-MP2 CORRELATION ENERGY:     -1.559018533 Eh
-----------------------------------------------


---------------------
MP2 DENSITY FORMATION
---------------------

Completing the external part of the density      ... done
Storing the unrelaxed density                    ... done

Calculating G(D)                                 ... done
Completing the Lagrangian                        ... done
Solving the Z-vector equations                   ... 

------------------------------------------------------------------------------
                           ORCA CP-SCF CALCULATION
------------------------------------------------------------------------------

Input orbitals are from        ... dsgdb9nsd_042315.gbw
Input Perturbation             ... dsgdb9nsd_042315.pin.tmp
Wavefunction output            ... dsgdb9nsd_042315.pout.tmp
Perturbation mode              ... Real perturbation
Solver                         ... POPLE
Max. number of iterations      ... 128
Convergence tolerance          ... 1.000e-08
Integral handling              ... Direct
Number of perturbations        ... 1
Number of operators            ... 1
Orbital ranges used for CP-SCF:
 Operator 0:  Orbitals   0... 32  to  33...326
Variables per vector in CP-SCF ... 9702
Number of vectors sought       ... 1
     CP-SCF ITERATION   0: 
     CP-SCF ITERATION   1:      0.002651972
     CP-SCF ITERATION   2:      0.000550875
     CP-SCF ITERATION   3:      0.000144994
     CP-SCF ITERATION   4:      0.000060856
     CP-SCF ITERATION   5:      0.000006174
     CP-SCF ITERATION   6:      0.000000719
     CP-SCF ITERATION   7:      0.000000056
     CP-SCF ITERATION   8:      0.000000005
done
Finalizing the relaxed density                   ... done
Transforming P to the AO basis                   ... done
Storing the relaxed density                      ... done

                *********************************************
                * UNRELAXED MP2 DENSITY POPULATION ANALYSIS *
                *********************************************

------------------------------------------------------------------------------
                           ORCA POPULATION ANALYSIS
------------------------------------------------------------------------------
Input electron density              ... dsgdb9nsd_042315.pmp2ur
BaseName (.gbw .S,...)              ... dsgdb9nsd_042315

                    ********************************
                    * MULLIKEN POPULATION ANALYSIS *
                    ********************************

-----------------------
MULLIKEN ATOMIC CHARGES
-----------------------
   0 O :   -0.388632
   1 C :    0.027110
   2 C :   -0.031708
   3 C :    0.004934
   4 C :    0.045906
   5 C :   -0.223428
   6 C :    0.022917
   7 O :   -0.383259
   8 C :   -0.034303
   9 H :    0.217327
  10 H :    0.109180
  11 H :    0.098629
  12 H :    0.145854
  13 H :    0.102280
  14 H :    0.081455
  15 H :    0.091492
  16 H :    0.114247
Sum of atomic charges:    0.0000000

--------------------------------
MULLIKEN REDUCED ORBITAL CHARGES
--------------------------------
  0 O s       :     3.844925  s :     3.844925
      pz      :     1.320501  p :     4.475509
      px      :     1.816076
      py      :     1.338931
      dz2     :     0.008302  d :     0.063386
      dxz     :     0.005588
      dyz     :     0.018574
      dx2y2   :     0.016972
      dxy     :     0.013950
      f0      :     0.000541  f :     0.004812
      f+1     :     0.000348
      f-1     :     0.000601
      f+2     :     0.000909
      f-2     :     0.000388
      f+3     :     0.000983
      f-3     :     0.001043
  1 C s       :     3.285070  s :     3.285070
      pz      :     0.679098  p :     2.411593
      px      :     0.968656
      py      :     0.763839
      dz2     :     0.011219  d :     0.254097
      dxz     :     0.019288
      dyz     :     0.060391
      dx2y2   :     0.046096
      dxy     :     0.117102
      f0      :     0.002521  f :     0.022130
      f+1     :     0.001312
      f-1     :     0.001661
      f+2     :     0.003240
      f-2     :     0.001558
      f+3     :     0.007836
      f-3     :     0.004002
  2 C s       :     3.399738  s :     3.399738
      pz      :     1.010223  p :     2.491359
      px      :     0.701033
      py      :     0.780103
      dz2     :     0.015346  d :     0.124786
      dxz     :     0.019514
      dyz     :     0.013968
      dx2y2   :     0.040315
      dxy     :     0.035643
      f0      :     0.001945  f :     0.015825
      f+1     :     0.001536
      f-1     :     0.001020
      f+2     :     0.001104
      f-2     :     0.002849
      f+3     :     0.004823
      f-3     :     0.002548
  3 C s       :     3.020779  s :     3.020779
      pz      :     0.880758  p :     2.923756
      px      :     1.038514
      py      :     1.004483
      dz2     :     0.003142  d :     0.039289
      dxz     :     0.013248
      dyz     :     0.008406
      dx2y2   :     0.013449
      dxy     :     0.001043
      f0      :     0.001234  f :     0.011243
      f+1     :     0.001228
      f-1     :     0.000767
      f+2     :     0.000814
      f-2     :     0.001901
      f+3     :     0.003042
      f-3     :     0.002257
  4 C s       :     2.971703  s :     2.971703
      pz      :     0.950908  p :     2.825200
      px      :     0.925891
      py      :     0.948400
      dz2     :     0.029625  d :     0.144870
      dxz     :     0.025029
      dyz     :     0.030348
      dx2y2   :     0.028671
      dxy     :     0.031197
      f0      :     0.001785  f :     0.012321
      f+1     :     0.001705
      f-1     :     0.001682
      f+2     :     0.001306
      f-2     :     0.001736
      f+3     :     0.001817
      f-3     :     0.002290
  5 C s       :     3.168035  s :     3.168035
      pz      :     0.979059  p :     2.930715
      px      :     0.912879
      py      :     1.038776
      dz2     :     0.024340  d :     0.114208
      dxz     :     0.027152
      dyz     :     0.016303
      dx2y2   :     0.027295
      dxy     :     0.019119
      f0      :     0.001184  f :     0.010470
      f+1     :     0.002021
      f-1     :     0.001399
      f+2     :     0.001241
      f-2     :     0.001642
      f+3     :     0.001456
      f-3     :     0.001528
  6 C s       :     3.161368  s :     3.161368
      pz      :     0.900672  p :     2.645434
      px      :     0.993939
      py      :     0.750823
      dz2     :     0.028099  d :     0.155460
      dxz     :     0.023487
      dyz     :     0.042296
      dx2y2   :     0.039614
      dxy     :     0.021963
      f0      :     0.001560  f :     0.014822
      f+1     :     0.001548
      f-1     :     0.002860
      f+2     :     0.002790
      f-2     :     0.002072
      f+3     :     0.002092
      f-3     :     0.001900
  7 O s       :     3.781295  s :     3.781295
      pz      :     1.763261  p :     4.526454
      px      :     1.280811
      py      :     1.482383
      dz2     :     0.011398  d :     0.070632
      dxz     :     0.010862
      dyz     :     0.012724
      dx2y2   :     0.022461
      dxy     :     0.013187
      f0      :     0.000682  f :     0.004877
      f+1     :     0.000711
      f-1     :     0.000606
      f+2     :     0.000761
      f-2     :     0.000588
      f+3     :     0.000830
      f-3     :     0.000700
  8 C s       :     3.193928  s :     3.193928
      pz      :     0.942711  p :     2.664956
      px      :     0.685012
      py      :     1.037233
      dz2     :     0.023345  d :     0.160367
      dxz     :     0.045981
      dyz     :     0.025849
      dx2y2   :     0.027483
      dxy     :     0.037708
      f0      :     0.002322  f :     0.015051
      f+1     :     0.001928
      f-1     :     0.001927
      f+2     :     0.002850
      f-2     :     0.001055
      f+3     :     0.002325
      f-3     :     0.002644
  9 H s       :     0.755685  s :     0.755685
      pz      :     0.004274  p :     0.026988
      px      :     0.014186
      py      :     0.008528
 10 H s       :     0.864374  s :     0.864374
      pz      :     0.009697  p :     0.026446
      px      :     0.005124
      py      :     0.011625
 11 H s       :     0.875762  s :     0.875762
      pz      :     0.013635  p :     0.025609
      px      :     0.006169
      py      :     0.005805
 12 H s       :     0.828193  s :     0.828193
      pz      :     0.004786  p :     0.025953
      px      :     0.005632
      py      :     0.015535
 13 H s       :     0.873045  s :     0.873045
      pz      :     0.005419  p :     0.024675
      px      :     0.015552
      py      :     0.003705
 14 H s       :     0.894256  s :     0.894256
      pz      :     0.009274  p :     0.024290
      px      :     0.004374
      py      :     0.010642
 15 H s       :     0.884105  s :     0.884105
      pz      :     0.011643  p :     0.024402
      px      :     0.004618
      py      :     0.008142
 16 H s       :     0.860900  s :     0.860900
      pz      :     0.004975  p :     0.024853
      px      :     0.005044
      py      :     0.014834


                     *******************************
                     * LOEWDIN POPULATION ANALYSIS *
                     *******************************

----------------------
LOEWDIN ATOMIC CHARGES
----------------------
   0 O :    0.121322
   1 C :   -0.267138
   2 C :   -0.058378
   3 C :   -0.036585
   4 C :   -0.187761
   5 C :   -0.205676
   6 C :   -0.269719
   7 O :    0.120317
   8 C :   -0.251418
   9 H :    0.133775
  10 H :    0.156796
  11 H :    0.128586
  12 H :    0.140469
  13 H :    0.118409
  14 H :    0.114518
  15 H :    0.120012
  16 H :    0.122470

-------------------------------
LOEWDIN REDUCED ORBITAL CHARGES
-------------------------------
  0 O s       :     3.394441  s :     3.394441
      pz      :     1.244568  p :     4.376654
      px      :     1.652457
      py      :     1.479629
      dz2     :     0.013138  d :     0.098566
      dxz     :     0.005609
      dyz     :     0.019880
      dx2y2   :     0.032294
      dxy     :     0.027645
      f0      :     0.000759  f :     0.009017
      f+1     :     0.000474
      f-1     :     0.001353
      f+2     :     0.001176
      f-2     :     0.000404
      f+3     :     0.002481
      f-3     :     0.002370
  1 C s       :     2.742955  s :     2.742955
      pz      :     0.649045  p :     2.601626
      px      :     0.973833
      py      :     0.978748
      dz2     :     0.055553  d :     0.802964
      dxz     :     0.062501
      dyz     :     0.147319
      dx2y2   :     0.208787
      dxy     :     0.328804
      f0      :     0.008679  f :     0.119593
      f+1     :     0.004929
      f-1     :     0.010578
      f+2     :     0.017682
      f-2     :     0.007174
      f+3     :     0.050242
      f-3     :     0.020309
  2 C s       :     2.801273  s :     2.801273
      pz      :     0.910989  p :     2.883944
      px      :     1.040333
      py      :     0.932623
      dz2     :     0.034901  d :     0.321352
      dxz     :     0.055737
      dyz     :     0.033563
      dx2y2   :     0.112488
      dxy     :     0.084663
      f0      :     0.004931  f :     0.051808
      f+1     :     0.006284
      f-1     :     0.003431
      f+2     :     0.002194
      f-2     :     0.007559
      f+3     :     0.013488
      f-3     :     0.013921
  3 C s       :     2.885972  s :     2.885972
      pz      :     0.857329  p :     2.930248
      px      :     1.065294
      py      :     1.007624
      dz2     :     0.022419  d :     0.179000
      dxz     :     0.037093
      dyz     :     0.019321
      dx2y2   :     0.045388
      dxy     :     0.054780
      f0      :     0.004254  f :     0.041365
      f+1     :     0.005238
      f-1     :     0.002779
      f+2     :     0.001849
      f-2     :     0.006512
      f+3     :     0.009533
      f-3     :     0.011201
  4 C s       :     2.731497  s :     2.731497
      pz      :     0.982535  p :     2.908499
      px      :     0.950584
      py      :     0.975381
      dz2     :     0.092537  d :     0.491551
      dxz     :     0.077564
      dyz     :     0.109978
      dx2y2   :     0.098578
      dxy     :     0.112895
      f0      :     0.008456  f :     0.056214
      f+1     :     0.009106
      f-1     :     0.005723
      f+2     :     0.007474
      f-2     :     0.006658
      f+3     :     0.009595
      f-3     :     0.009201
  5 C s       :     2.775177  s :     2.775177
      pz      :     1.004547  p :     2.991035
      px      :     0.970399
      py      :     1.016090
      dz2     :     0.091895  d :     0.394440
      dxz     :     0.098706
      dyz     :     0.048061
      dx2y2   :     0.089095
      dxy     :     0.066682
      f0      :     0.004829  f :     0.045024
      f+1     :     0.008415
      f-1     :     0.005914
      f+2     :     0.004522
      f-2     :     0.008972
      f+3     :     0.006612
      f-3     :     0.005760
  6 C s       :     2.796836  s :     2.796836
      pz      :     0.980407  p :     2.842430
      px      :     1.000508
      py      :     0.861514
      dz2     :     0.091480  d :     0.551281
      dxz     :     0.081084
      dyz     :     0.157517
      dx2y2   :     0.153359
      dxy     :     0.067841
      f0      :     0.009745  f :     0.079172
      f+1     :     0.006914
      f-1     :     0.014983
      f+2     :     0.012119
      f-2     :     0.011138
      f+3     :     0.012123
      f-3     :     0.012149
  7 O s       :     3.284763  s :     3.284763
      pz      :     1.641595  p :     4.450175
      px      :     1.325088
      py      :     1.483492
      dz2     :     0.018811  d :     0.134763
      dxz     :     0.022311
      dyz     :     0.021264
      dx2y2   :     0.042786
      dxy     :     0.029591
      f0      :     0.001022  f :     0.009982
      f+1     :     0.001046
      f-1     :     0.001150
      f+2     :     0.001772
      f-2     :     0.000938
      f+3     :     0.001767
      f-3     :     0.002288
  8 C s       :     2.792113  s :     2.792113
      pz      :     0.993896  p :     2.822360
      px      :     0.801634
      py      :     1.026829
      dz2     :     0.095125  d :     0.556369
      dxz     :     0.138826
      dyz     :     0.087072
      dx2y2   :     0.112310
      dxy     :     0.123035
      f0      :     0.011755  f :     0.080576
      f+1     :     0.011760
      f-1     :     0.006840
      f+2     :     0.015392
      f-2     :     0.005133
      f+3     :     0.013647
      f-3     :     0.016048
  9 H s       :     0.791684  s :     0.791684
      pz      :     0.012594  p :     0.074541
      px      :     0.038009
      py      :     0.023938
 10 H s       :     0.779564  s :     0.779564
      pz      :     0.023333  p :     0.063640
      px      :     0.013048
      py      :     0.027259
 11 H s       :     0.806912  s :     0.806912
      pz      :     0.031701  p :     0.064502
      px      :     0.016192
      py      :     0.016609
 12 H s       :     0.792490  s :     0.792490
      pz      :     0.013248  p :     0.067041
      px      :     0.014998
      py      :     0.038794
 13 H s       :     0.819105  s :     0.819105
      pz      :     0.015117  p :     0.062486
      px      :     0.036962
      py      :     0.010407
 14 H s       :     0.823381  s :     0.823381
      pz      :     0.023255  p :     0.062101
      px      :     0.012673
      py      :     0.026172
 15 H s       :     0.817581  s :     0.817581
      pz      :     0.027825  p :     0.062407
      px      :     0.011874
      py      :     0.022708
 16 H s       :     0.814345  s :     0.814345
      pz      :     0.013422  p :     0.063186
      px      :     0.012584
      py      :     0.037179


                      *****************************
                      * MAYER POPULATION ANALYSIS *
                      *****************************

  NA   - Mulliken gross atomic population
  ZA   - Total nuclear charge
  QA   - Mulliken gross atomic charge
  VA   - Mayer's total valence
  BVA  - Mayer's bonded valence
  FA   - Mayer's free valence

  ATOM       NA         ZA         QA         VA         BVA        FA
  0 O      8.3886     8.0000    -0.3886     2.3203     1.8547     0.4656
  1 C      5.9729     6.0000     0.0271     4.1732     3.8103     0.3630
  2 C      6.0317     6.0000    -0.0317     3.9762     3.5460     0.4302
  3 C      5.9951     6.0000     0.0049     3.7041     3.2751     0.4289
  4 C      5.9541     6.0000     0.0459     3.8122     3.4758     0.3365
  5 C      6.2234     6.0000    -0.2234     4.0501     3.7286     0.3215
  6 C      5.9771     6.0000     0.0229     4.0459     3.7413     0.3046
  7 O      8.3833     8.0000    -0.3833     2.1322     1.7065     0.4257
  8 C      6.0343     6.0000    -0.0343     4.1142     3.8004     0.3138
  9 H      0.7827     1.0000     0.2173     0.9644     0.9242     0.0402
 10 H      0.8908     1.0000     0.1092     0.9796     0.9285     0.0511
 11 H      0.9014     1.0000     0.0986     0.9859     0.9354     0.0505
 12 H      0.8541     1.0000     0.1459     0.9880     0.9384     0.0495
 13 H      0.8977     1.0000     0.1023     0.9756     0.9266     0.0490
 14 H      0.9185     1.0000     0.0815     0.9808     0.9292     0.0516
 15 H      0.9085     1.0000     0.0915     0.9763     0.9241     0.0522
 16 H      0.8858     1.0000     0.1142     0.9759     0.9269     0.0490

  Mayer bond orders larger than 0.1
B(  0-O ,  1-C ) :   1.8720 B(  1-C ,  2-C ) :   1.0617 B(  1-C ,  3-C ) :  -0.2023 
B(  1-C ,  4-C ) :   0.9551 B(  2-C ,  3-C ) :   2.5554 B(  3-C ,  9-H ) :   0.8828 
B(  4-C ,  5-C ) :   0.8816 B(  4-C ,  8-C ) :   0.8930 B(  4-C , 10-H ) :   0.9206 
B(  5-C ,  6-C ) :   0.9546 B(  5-C , 11-H ) :   0.9448 B(  5-C , 12-H ) :   0.9300 
B(  6-C ,  7-O ) :   0.8656 B(  6-C , 13-H ) :   0.9389 B(  6-C , 14-H ) :   0.9477 
B(  7-O ,  8-C ) :   0.8869 B(  8-C , 15-H ) :   0.9366 B(  8-C , 16-H ) :   0.9339 



                *******************************************
                * RELAXED MP2 DENSITY POPULATION ANALYSIS *
                *******************************************

------------------------------------------------------------------------------
                           ORCA POPULATION ANALYSIS
------------------------------------------------------------------------------
Input electron density              ... dsgdb9nsd_042315.pmp2re
BaseName (.gbw .S,...)              ... dsgdb9nsd_042315

                    ********************************
                    * MULLIKEN POPULATION ANALYSIS *
                    ********************************

-----------------------
MULLIKEN ATOMIC CHARGES
-----------------------
   0 O :   -0.266053
   1 C :   -0.016697
   2 C :    0.033865
   3 C :   -0.082562
   4 C :   -0.034572
   5 C :   -0.258476
   6 C :   -0.042067
   7 O :   -0.304542
   8 C :   -0.085987
   9 H :    0.203728
  10 H :    0.126729
  11 H :    0.119929
  12 H :    0.153788
  13 H :    0.120666
  14 H :    0.095327
  15 H :    0.105005
  16 H :    0.131921
Sum of atomic charges:    0.0000000

--------------------------------
MULLIKEN REDUCED ORBITAL CHARGES
--------------------------------
  0 O s       :     3.822434  s :     3.822434
      pz      :     1.271080  p :     4.378788
      px      :     1.765236
      py      :     1.342472
      dz2     :     0.008069  d :     0.060164
      dxz     :     0.005608
      dyz     :     0.016795
      dx2y2   :     0.015122
      dxy     :     0.014570
      f0      :     0.000509  f :     0.004666
      f+1     :     0.000348
      f-1     :     0.000557
      f+2     :     0.000892
      f-2     :     0.000388
      f+3     :     0.001007
      f-3     :     0.000964
  1 C s       :     3.244011  s :     3.244011
      pz      :     0.762466  p :     2.508368
      px      :     0.973694
      py      :     0.772208
      dz2     :     0.012890  d :     0.243655
      dxz     :     0.020435
      dyz     :     0.049522
      dx2y2   :     0.049069
      dxy     :     0.111739
      f0      :     0.002246  f :     0.020662
      f+1     :     0.001209
      f-1     :     0.001706
      f+2     :     0.002795
      f-2     :     0.001510
      f+3     :     0.007507
      f-3     :     0.003690
  2 C s       :     3.297882  s :     3.297882
      pz      :     0.954170  p :     2.551485
      px      :     0.761870
      py      :     0.835445
      dz2     :     0.013089  d :     0.101577
      dxz     :     0.017132
      dyz     :     0.012600
      dx2y2   :     0.030640
      dxy     :     0.028115
      f0      :     0.001902  f :     0.015191
      f+1     :     0.001451
      f-1     :     0.000977
      f+2     :     0.001091
      f-2     :     0.002819
      f+3     :     0.004576
      f-3     :     0.002375
  3 C s       :     3.069619  s :     3.069619
      pz      :     0.934632  p :     2.975306
      px      :     1.034754
      py      :     1.005919
      dz2     :     0.003015  d :     0.027331
      dxz     :     0.007803
      dyz     :     0.006037
      dx2y2   :     0.008936
      dxy     :     0.001540
      f0      :     0.001124  f :     0.010307
      f+1     :     0.001162
      f-1     :     0.000736
      f+2     :     0.000767
      f-2     :     0.001681
      f+3     :     0.002748
      f-3     :     0.002090
  4 C s       :     3.034321  s :     3.034321
      pz      :     0.950784  p :     2.854798
      px      :     0.936630
      py      :     0.967384
      dz2     :     0.026160  d :     0.133753
      dxz     :     0.025299
      dyz     :     0.027527
      dx2y2   :     0.028915
      dxy     :     0.025852
      f0      :     0.001731  f :     0.011699
      f+1     :     0.001593
      f-1     :     0.001532
      f+2     :     0.001300
      f-2     :     0.001711
      f+3     :     0.001851
      f-3     :     0.001979
  5 C s       :     3.179889  s :     3.179889
      pz      :     0.997594  p :     2.965888
      px      :     0.921624
      py      :     1.046670
      dz2     :     0.021871  d :     0.102762
      dxz     :     0.023082
      dyz     :     0.015974
      dx2y2   :     0.025138
      dxy     :     0.016697
      f0      :     0.001169  f :     0.009937
      f+1     :     0.001846
      f-1     :     0.001338
      f+2     :     0.001175
      f-2     :     0.001576
      f+3     :     0.001453
      f-3     :     0.001381
  6 C s       :     3.178638  s :     3.178638
      pz      :     0.920287  p :     2.701511
      px      :     1.007998
      py      :     0.773226
      dz2     :     0.029286  d :     0.147771
      dxz     :     0.020286
      dyz     :     0.039633
      dx2y2   :     0.037235
      dxy     :     0.021332
      f0      :     0.001520  f :     0.014146
      f+1     :     0.001412
      f-1     :     0.002741
      f+2     :     0.002618
      f-2     :     0.001998
      f+3     :     0.001975
      f-3     :     0.001881
  7 O s       :     3.775284  s :     3.775284
      pz      :     1.727452  p :     4.455296
      px      :     1.267576
      py      :     1.460268
      dz2     :     0.011269  d :     0.069114
      dxz     :     0.011457
      dyz     :     0.012390
      dx2y2   :     0.020487
      dxy     :     0.013512
      f0      :     0.000680  f :     0.004847
      f+1     :     0.000693
      f-1     :     0.000618
      f+2     :     0.000760
      f-2     :     0.000585
      f+3     :     0.000797
      f-3     :     0.000713
  8 C s       :     3.207731  s :     3.207731
      pz      :     0.960617  p :     2.710851
      px      :     0.697225
      py      :     1.053010
      dz2     :     0.021336  d :     0.153041
      dxz     :     0.046276
      dyz     :     0.023311
      dx2y2   :     0.024554
      dxy     :     0.037565
      f0      :     0.002256  f :     0.014363
      f+1     :     0.001843
      f-1     :     0.001760
      f+2     :     0.002757
      f-2     :     0.001004
      f+3     :     0.002180
      f-3     :     0.002563
  9 H s       :     0.770768  s :     0.770768
      pz      :     0.004703  p :     0.025504
      px      :     0.012770
      py      :     0.008031
 10 H s       :     0.848028  s :     0.848028
      pz      :     0.009172  p :     0.025243
      px      :     0.005349
      py      :     0.010722
 11 H s       :     0.855454  s :     0.855454
      pz      :     0.012501  p :     0.024618
      px      :     0.006203
      py      :     0.005913
 12 H s       :     0.821245  s :     0.821245
      pz      :     0.005036  p :     0.024967
      px      :     0.005851
      py      :     0.014080
 13 H s       :     0.855837  s :     0.855837
      pz      :     0.005502  p :     0.023497
      px      :     0.014112
      py      :     0.003884
 14 H s       :     0.881492  s :     0.881492
      pz      :     0.008701  p :     0.023181
      px      :     0.004592
      py      :     0.009888
 15 H s       :     0.871740  s :     0.871740
      pz      :     0.010752  p :     0.023255
      px      :     0.004735
      py      :     0.007768
 16 H s       :     0.844474  s :     0.844474
      pz      :     0.005179  p :     0.023605
      px      :     0.005007
      py      :     0.013420


                     *******************************
                     * LOEWDIN POPULATION ANALYSIS *
                     *******************************

----------------------
LOEWDIN ATOMIC CHARGES
----------------------
   0 O :    0.180825
   1 C :   -0.310057
   2 C :   -0.056835
   3 C :   -0.040188
   4 C :   -0.207659
   5 C :   -0.228030
   6 C :   -0.299956
   7 O :    0.155254
   8 C :   -0.279709
   9 H :    0.133135
  10 H :    0.165212
  11 H :    0.137889
  12 H :    0.146228
  13 H :    0.126541
  14 H :    0.120927
  15 H :    0.125955
  16 H :    0.130467

-------------------------------
LOEWDIN REDUCED ORBITAL CHARGES
-------------------------------
  0 O s       :     3.396976  s :     3.396976
      pz      :     1.208554  p :     4.314416
      px      :     1.623835
      py      :     1.482028
      dz2     :     0.013153  d :     0.098641
      dxz     :     0.005625
      dyz     :     0.020225
      dx2y2   :     0.031083
      dxy     :     0.028554
      f0      :     0.000807  f :     0.009141
      f+1     :     0.000473
      f-1     :     0.001346
      f+2     :     0.001280
      f-2     :     0.000405
      f+3     :     0.002485
      f-3     :     0.002345
  1 C s       :     2.747729  s :     2.747729
      pz      :     0.704711  p :     2.648865
      px      :     0.973854
      py      :     0.970300
      dz2     :     0.055789  d :     0.798776
      dxz     :     0.062514
      dyz     :     0.133218
      dx2y2   :     0.214419
      dxy     :     0.332836
      f0      :     0.007653  f :     0.114688
      f+1     :     0.004644
      f-1     :     0.010955
      f+2     :     0.016782
      f-2     :     0.006953
      f+3     :     0.047706
      f-3     :     0.019996
  2 C s       :     2.809012  s :     2.809012
      pz      :     0.883343  p :     2.880298
      px      :     1.044396
      py      :     0.952559
      dz2     :     0.035562  d :     0.314253
      dxz     :     0.057763
      dyz     :     0.033850
      dx2y2   :     0.103791
      dxy     :     0.083287
      f0      :     0.005410  f :     0.053273
      f+1     :     0.006501
      f-1     :     0.003511
      f+2     :     0.002314
      f-2     :     0.008312
      f+3     :     0.012998
      f-3     :     0.014226
  3 C s       :     2.892544  s :     2.892544
      pz      :     0.892672  p :     2.940572
      px      :     1.056804
      py      :     0.991096
      dz2     :     0.021559  d :     0.165067
      dxz     :     0.030354
      dyz     :     0.016344
      dx2y2   :     0.043120
      dxy     :     0.053690
      f0      :     0.004096  f :     0.042005
      f+1     :     0.005323
      f-1     :     0.002853
      f+2     :     0.001832
      f-2     :     0.006227
      f+3     :     0.010166
      f-3     :     0.011508
  4 C s       :     2.740105  s :     2.740105
      pz      :     0.983024  p :     2.923669
      px      :     0.956844
      py      :     0.983801
      dz2     :     0.090684  d :     0.487574
      dxz     :     0.080520
      dyz     :     0.107789
      dx2y2   :     0.099066
      dxy     :     0.109514
      f0      :     0.008541  f :     0.056311
      f+1     :     0.009193
      f-1     :     0.005627
      f+2     :     0.007450
      f-2     :     0.006924
      f+3     :     0.009778
      f-3     :     0.008798
  5 C s       :     2.782110  s :     2.782110
      pz      :     1.013896  p :     3.016038
      px      :     0.976463
      py      :     1.025679
      dz2     :     0.089222  d :     0.385033
      dxz     :     0.095869
      dyz     :     0.047450
      dx2y2   :     0.087571
      dxy     :     0.064921
      f0      :     0.004877  f :     0.044850
      f+1     :     0.008298
      f-1     :     0.005793
      f+2     :     0.004500
      f-2     :     0.009007
      f+3     :     0.006733
      f-3     :     0.005641
  6 C s       :     2.804686  s :     2.804686
      pz      :     0.990773  p :     2.872449
      px      :     1.008915
      py      :     0.872761
      dz2     :     0.092448  d :     0.545244
      dxz     :     0.078311
      dyz     :     0.155677
      dx2y2   :     0.151745
      dxy     :     0.067063
      f0      :     0.009750  f :     0.077577
      f+1     :     0.006894
      f-1     :     0.014318
      f+2     :     0.011792
      f-2     :     0.011049
      f+3     :     0.011899
      f-3     :     0.011874
  7 O s       :     3.289564  s :     3.289564
      pz      :     1.619441  p :     4.408656
      px      :     1.319258
      py      :     1.469957
      dz2     :     0.019048  d :     0.136319
      dxz     :     0.023220
      dyz     :     0.021376
      dx2y2   :     0.042238
      dxy     :     0.030438
      f0      :     0.001038  f :     0.010207
      f+1     :     0.001066
      f-1     :     0.001166
      f+2     :     0.001813
      f-2     :     0.000954
      f+3     :     0.001824
      f-3     :     0.002346
  8 C s       :     2.800661  s :     2.800661
      pz      :     1.003337  p :     2.849080
      px      :     0.807269
      py      :     1.038474
      dz2     :     0.093137  d :     0.551069
      dxz     :     0.140370
      dyz     :     0.085624
      dx2y2   :     0.109046
      dxy     :     0.122892
      f0      :     0.011590  f :     0.078899
      f+1     :     0.011829
      f-1     :     0.006609
      f+2     :     0.014870
      f-2     :     0.005043
      f+3     :     0.013510
      f-3     :     0.015449
  9 H s       :     0.793027  s :     0.793027
      pz      :     0.014116  p :     0.073837
      px      :     0.036350
      py      :     0.023371
 10 H s       :     0.770026  s :     0.770026
      pz      :     0.023581  p :     0.064762
      px      :     0.013848
      py      :     0.027332
 11 H s       :     0.796402  s :     0.796402
      pz      :     0.031748  p :     0.065709
      px      :     0.016790
      py      :     0.017172
 12 H s       :     0.785727  s :     0.785727
      pz      :     0.013942  p :     0.068045
      px      :     0.015725
      py      :     0.038377
 13 H s       :     0.810177  s :     0.810177
      pz      :     0.015625  p :     0.063282
      px      :     0.036771
      py      :     0.010887
 14 H s       :     0.815858  s :     0.815858
      pz      :     0.023405  p :     0.063214
      px      :     0.013177
      py      :     0.026633
 15 H s       :     0.810548  s :     0.810548
      pz      :     0.027826  p :     0.063497
      px      :     0.012624
      py      :     0.023046
 16 H s       :     0.805631  s :     0.805631
      pz      :     0.013993  p :     0.063902
      px      :     0.013059
      py      :     0.036850


                      *****************************
                      * MAYER POPULATION ANALYSIS *
                      *****************************

  NA   - Mulliken gross atomic population
  ZA   - Total nuclear charge
  QA   - Mulliken gross atomic charge
  VA   - Mayer's total valence
  BVA  - Mayer's bonded valence
  FA   - Mayer's free valence

  ATOM       NA         ZA         QA         VA         BVA        FA
  0 O      8.2661     8.0000    -0.2661     2.4588     2.0098     0.4491
  1 C      6.0167     6.0000    -0.0167     4.3306     3.9824     0.3482
  2 C      5.9661     6.0000     0.0339     3.9564     3.5418     0.4146
  3 C      6.0826     6.0000    -0.0826     3.8628     3.4427     0.4200
  4 C      6.0346     6.0000    -0.0346     3.8017     3.4716     0.3301
  5 C      6.2585     6.0000    -0.2585     4.0095     3.6924     0.3170
  6 C      6.0421     6.0000    -0.0421     4.0819     3.7820     0.2999
  7 O      8.3045     8.0000    -0.3045     2.2618     1.8467     0.4151
  8 C      6.0860     6.0000    -0.0860     4.1272     3.8188     0.3084
  9 H      0.7963     1.0000     0.2037     0.9676     0.9278     0.0398
 10 H      0.8733     1.0000     0.1267     0.9737     0.9240     0.0496
 11 H      0.8801     1.0000     0.1199     0.9787     0.9295     0.0493
 12 H      0.8462     1.0000     0.1538     0.9899     0.9419     0.0481
 13 H      0.8793     1.0000     0.1207     0.9650     0.9167     0.0482
 14 H      0.9047     1.0000     0.0953     0.9711     0.9208     0.0503
 15 H      0.8950     1.0000     0.1050     0.9674     0.9166     0.0508
 16 H      0.8681     1.0000     0.1319     0.9652     0.9171     0.0481

  Mayer bond orders larger than 0.1
B(  0-O ,  1-C ) :   1.9876 B(  1-C ,  2-C ) :   1.0359 B(  1-C ,  3-C ) :  -0.1095 
B(  1-C ,  4-C ) :   0.9485 B(  2-C ,  3-C ) :   2.5943 B(  3-C ,  9-H ) :   0.8935 
B(  4-C ,  5-C ) :   0.9016 B(  4-C ,  8-C ) :   0.8943 B(  4-C , 10-H ) :   0.9049 
B(  5-C ,  6-C ) :   0.9603 B(  5-C , 11-H ) :   0.9272 B(  5-C , 12-H ) :   0.9143 
B(  6-C ,  7-O ) :   0.9261 B(  6-C , 13-H ) :   0.9251 B(  6-C , 14-H ) :   0.9285 
B(  7-O ,  8-C ) :   0.9446 B(  8-C , 15-H ) :   0.9200 B(  8-C , 16-H ) :   0.9188 



-------
TIMINGS
-------

Total time                :  853.096 sec
Integral trafo            :    7.130 sec (  0.8%)
FC preparation            :    6.909 sec (  0.8%)
I/O of integrals          :    0.058 sec (  0.0%)
K(i,j) Operators          :   16.664 sec (  2.0%)
T(i,j) pair energies      :    0.854 sec (  0.1%)
V-calculation             :    0.018 sec (  0.0%)
V**(-1/2)                 :    0.109 sec (  0.0%)
Gamma(ia|P)               :   15.707 sec (  1.8%)
Gamma-Trafo               :    1.309 sec (  0.2%)
D(virtual)                :    5.820 sec (  0.7%)
D(internal)               :    3.567 sec (  0.4%)
W(virtual)                :    0.000 sec (  0.0%)
W(internal)               :    0.000 sec (  0.0%)
L(virtual)                :   10.351 sec (  1.2%)
L(internal)               :    0.192 sec (  0.0%)
G(D)                      :   90.167 sec ( 10.6%)
G(Z)                      :    0.000 sec (  0.0%)
Z-Vector Solution         :  693.293 sec ( 81.3%)
3-Index Derivative        :    0.000 sec (  0.0%)
2-Index Derivative        :    0.000 sec (  0.0%)
Separable Gradient (RIJ)  :    0.000 sec (  0.0%)
Separable Gradient (X)    :    0.000 sec (  0.0%)


---------------------------------------
MP2 TOTAL ENERGY:     -421.087536346 Eh
---------------------------------------

-------------------------   --------------------
FINAL SINGLE POINT ENERGY      -421.087536345670
-------------------------   --------------------


                            ***************************************
                            *     ORCA property calculations      *
                            ***************************************

                                    ---------------------
                                    Active property flags
                                    ---------------------
   (+) Dipole Moment


------------------------------------------------------------------------------
                       ORCA ELECTRIC PROPERTIES CALCULATION
------------------------------------------------------------------------------

Dipole Moment Calculation                       ... on
Quadrupole Moment Calculation                   ... off
Polarizability Calculation                      ... off
GBWName                                         ... dsgdb9nsd_042315.gbw
Electron density file                           ... dsgdb9nsd_042315.scfp.tmp

-------------
DIPOLE MOMENT
-------------
                                X             Y             Z
Electronic contribution:      5.45719      -0.78015      -0.15294
Nuclear contribution   :     -5.17801       1.59423      -0.06153
                        -----------------------------------------
Total Dipole Moment    :      0.27918       0.81409      -0.21447
                        -----------------------------------------
Magnitude (a.u.)       :      0.88694
Magnitude (Debye)      :      2.25443


                         *** MP2 UNRELAXED DENSITY ***

------------------------------------------------------------------------------
                       ORCA ELECTRIC PROPERTIES CALCULATION
------------------------------------------------------------------------------

Dipole Moment Calculation                       ... on
Quadrupole Moment Calculation                   ... off
Polarizability Calculation                      ... off
GBWName                                         ... dsgdb9nsd_042315.gbw
Electron density file                           ... dsgdb9nsd_042315.pmp2ur

-------------
DIPOLE MOMENT
-------------
                                X             Y             Z
Electronic contribution:      5.44042      -0.81540      -0.14609
Nuclear contribution   :     -5.17801       1.59423      -0.06153
                        -----------------------------------------
Total Dipole Moment    :      0.26240       0.77883      -0.20762
                        -----------------------------------------
Magnitude (a.u.)       :      0.84767
Magnitude (Debye)      :      2.15460


                           *** MP2 RELAXED DENSITY ***

------------------------------------------------------------------------------
                       ORCA ELECTRIC PROPERTIES CALCULATION
------------------------------------------------------------------------------

Dipole Moment Calculation                       ... on
Quadrupole Moment Calculation                   ... off
Polarizability Calculation                      ... off
GBWName                                         ... dsgdb9nsd_042315.gbw
Electron density file                           ... dsgdb9nsd_042315.pmp2re

-------------
DIPOLE MOMENT
-------------
                                X             Y             Z
Electronic contribution:      5.43694      -0.92768      -0.13903
Nuclear contribution   :     -5.17801       1.59423      -0.06153
                        -----------------------------------------
Total Dipole Moment    :      0.25893       0.66655      -0.20055
                        -----------------------------------------
Magnitude (a.u.)       :      0.74267
Magnitude (Debye)      :      1.88771


Timings for individual modules:

Sum of individual times         ...     1033.415 sec (=  17.224 min)
GTO integral calculation        ...        0.534 sec (=   0.009 min)   0.1 %
SCF iterations                  ...      179.643 sec (=   2.994 min)  17.4 %
MP2 module                      ...      853.238 sec (=  14.221 min)  82.6 %
                             ****ORCA TERMINATED NORMALLY****
TOTAL RUN TIME: 0 days 0 hours 17 minutes 13 seconds 917 msec
