
                                 *****************
                                 * O   R   C   A *
                                 *****************

           --- An Ab Initio, DFT and Semiempirical electronic structure package ---

                  #######################################################
                  #                        -***-                        #
                  #  Department of molecular theory and spectroscopy    #
                  #              Directorship: Frank Neese              #
                  # Max Planck Institute for Chemical Energy Conversion #
                  #                  D-45470 Muelheim/Ruhr              #
                  #                       Germany                       #
                  #                                                     #
                  #                  All rights reserved                #
                  #                        -***-                        #
                  #######################################################


                         Program Version 3.0.3 - RELEASE   -


 With contributions from (in alphabetic order):
   Ute Becker             : Parallelization
   Dmytro Bykov           : SCF Hessian
   Dmitry Ganyushin       : Spin-Orbit,Spin-Spin,Magnetic field MRCI
   Andreas Hansen         : Spin unrestricted coupled pair/coupled cluster methods
   Dimitrios Liakos       : Extrapolation schemes; parallel MDCI
   Robert Izsak           : Overlap fitted RIJCOSX, COSX-SCS-MP3
   Christian Kollmar      : KDIIS, OOCD, Brueckner-CCSD(T), CCSD density
   Simone Kossmann        : Meta GGA functionals, TD-DFT gradient, OOMP2, MP2 Hessian
   Taras Petrenko         : DFT Hessian,TD-DFT gradient, ASA and ECA modules, normal mode analysis, Resonance Raman, ABS, FL, XAS/XES, NRVS
   Christoph Reimann      : Effective Core Potentials
   Michael Roemelt        : Restricted open shell CIS
   Christoph Riplinger    : Improved optimizer, TS searches, QM/MM, DLPNO-CCSD
   Barbara Sandhoefer     : DKH picture change effects
   Igor Schapiro          : Molecular dynamics
   Kantharuban Sivalingam : CASSCF convergence, NEVPT2
   Boris Wezisla          : Elementary symmetry handling
   Frank Wennmohs         : Technical directorship


 We gratefully acknowledge several colleagues who have allowed us to
 interface, adapt or use parts of their codes:
   Stefan Grimme, W. Hujo, H. Kruse, T. Risthaus : VdW corrections, initial TS optimization,
                                                   DFT functionals, gCP
   Ed Valeev                                     : LibInt (2-el integral package), F12 methods
   Garnet Chan, S. Sharma, R. Olivares           : DMRG
   Ulf Ekstrom                                   : XCFun DFT Library
   Mihaly Kallay                                 : mrcc  (arbitrary order and MRCC methods)
   Andreas Klamt, Michael Diedenhofen            : otool_cosmo (COSMO solvation model)
   Frank Weinhold                                : gennbo (NPA and NBO analysis)
   Christopher J. Cramer and Donald G. Truhlar   : smd solvation model


 Your calculation uses the libint2 library for the computation of 2-el integrals
 For citations please refer to: http://libint.valeyev.net

 This ORCA versions uses:
   CBLAS   interface :  Fast vector & matrix operations
   LAPACKE interface :  Fast linear algebra routines
   SCALAPACK package :  Parallel linear algebra routines


Your calculation utilizes the basis: Ahlrichs-TZV
Cite in your paper:
H - Kr: A. Schaefer, H. Horn and R. Ahlrichs, J. Chem. Phys. 97, 2571 (1992).

The def2-TZV basis will be loaded
Cite in your paper:
 	F. Weigend, R. Ahlrichs, Phys. Chem. Chem. Phys. 2005, 7, 3297.

================================================================================
                                        WARNINGS
                       Please study these warnings very carefully!
================================================================================
Now building the actual basis set


INFO   : the flag for use of LIBINT has been found!

================================================================================
                                       INPUT FILE
================================================================================
NAME = dsgdb9nsd_023059.inp
|  1> ! RI-MP2 RIJK def2-TZVP def2-TZVP/C def2-TZVP/JK TIGHTSCF
|  2> % maxcore 2000
|  3> % mp2 density relaxed end
|  4> *xyz 0 1
|  5>  O       -0.0217403598     1.1620492853     0.2641228524 
|  6>  N       -0.0000465645    -0.2415891139     0.3143751263 
|  7>  C       -1.1262966408    -0.7370337529     0.0070140240 
|  8>  C       -2.5210559083    -0.2834330627    -0.3688972313 
|  9>  N       -2.9299394728    -1.7308321316    -0.4429656432 
| 10>  C       -1.5845727858    -2.1415861797     0.0198470975 
| 11>  C       -0.8052554640    -3.3767246762    -0.3669467082 
| 12>  C       -1.1522481445    -3.1303419490     1.0806106550 
| 13>  O       -0.1995731243    -2.7685265405     2.0236282388 
| 14>  H        0.8891504134     1.3925239631     0.4766112581 
| 15>  H       -3.0159214613     0.3117788375     0.4065826115 
| 16>  H       -2.6103786728     0.2380901602    -1.3266545668 
| 17>  H       -3.6525727334    -1.9507793848     0.2363100788 
| 18>  H       -1.3545532794    -4.1523244321    -0.8915393287 
| 19>  H        0.2224256852    -3.2310122625    -0.6857824731 
| 20>  H       -1.9200763906    -3.7626219695     1.5192282239 
| 21>  H        0.2247025438    -1.9482973507     1.7291712551 
| 22> *
| 23> 
| 24>                          ****END OF INPUT****
================================================================================

                       ****************************
                       * Single Point Calculation *
                       ****************************

---------------------------------
CARTESIAN COORDINATES (ANGSTROEM)
---------------------------------
  O     -0.021740    1.162049    0.264123
  N     -0.000047   -0.241589    0.314375
  C     -1.126297   -0.737034    0.007014
  C     -2.521056   -0.283433   -0.368897
  N     -2.929939   -1.730832   -0.442966
  C     -1.584573   -2.141586    0.019847
  C     -0.805255   -3.376725   -0.366947
  C     -1.152248   -3.130342    1.080611
  O     -0.199573   -2.768527    2.023628
  H      0.889150    1.392524    0.476611
  H     -3.015921    0.311779    0.406583
  H     -2.610379    0.238090   -1.326655
  H     -3.652573   -1.950779    0.236310
  H     -1.354553   -4.152324   -0.891539
  H      0.222426   -3.231012   -0.685782
  H     -1.920076   -3.762622    1.519228
  H      0.224703   -1.948297    1.729171

----------------------------
CARTESIAN COORDINATES (A.U.)
----------------------------
  NO LB      ZA    FRAG    MASS        X           Y           Z
   0 O     8.0000    0    15.999         -0.041083326074911          2.195954903335922          0.499119856746105
   1 N     7.0000    0    14.007         -0.000087994152563         -0.456537262207708          0.594082892023904
   2 C     6.0000    0    12.011         -2.128392196667476         -1.392791944437188          0.013254584456751
   3 C     6.0000    0    12.011         -4.764105234991089         -0.535610865801531         -0.697114738718803
   4 N     7.0000    0    14.007         -5.536783192557614         -3.270798712515147         -0.837083752384277
   5 C     6.0000    0    12.011         -2.994408604426662         -4.047011371823664          0.037505578828233
   6 C     6.0000    0    12.011         -1.521712294803684         -6.381084867671916         -0.693428784241916
   7 C     6.0000    0    12.011         -2.177433431423921         -5.915488989135286          2.042058195347262
   8 O     8.0000    0    15.999         -0.377138548618024         -5.231756956037442          3.824103168201396
   9 H     1.0000    0     1.008          1.680250773188865          2.631488925181662          0.900664750152657
  10 H     1.0000    0     1.008         -5.699265603272581          0.589176617227337          0.768329786549501
  11 H     1.0000    0     1.008         -4.932900797420832          0.449925197959437         -2.507013805567937
  12 H     1.0000    0     1.008         -6.902362150354160         -3.686438784971382          0.446561331617350
  13 H     1.0000    0     1.008         -2.559734731870915         -7.846755995859090         -1.684765168862999
  14 H     1.0000    0     1.008          0.420323630177781         -6.105728311466281         -1.295941061602218
  15 H     1.0000    0     1.008         -3.628418534442009         -7.110325067830400          2.870925278094596
  16 H     1.0000    0     1.008          0.424626269377445         -3.681748420267328          3.267660110787881

--------------------------------
INTERNAL COORDINATES (ANGSTROEM)
--------------------------------
 O      0   0   0   0.000000     0.000     0.000
 N      1   0   0   1.404705     0.000     0.000
 C      2   1   0   1.268217   111.591     0.000
 C      3   2   1   1.514073   139.571   357.857
 N      4   3   2   1.505867    88.532   181.585
 C      3   2   1   1.477481   130.145   184.888
 C      6   3   2   1.510798   127.949   321.714
 C      7   6   3   1.508818    60.148   109.699
 O      8   7   6   1.388446   122.437   251.358
 H      1   2   3   0.963323   102.508   182.426
 H      4   3   2   1.095691   113.771   299.194
 H      4   3   2   1.094196   115.805    66.486
 H      5   4   3   1.015870   111.615   117.828
 H      7   6   3   1.085578   116.539   217.834
 H      7   6   3   1.085825   116.980     0.698
 H      8   7   6   1.087071   117.037   107.642
 H      9   8   7   0.969273   108.332    58.160

---------------------------
INTERNAL COORDINATES (A.U.)
---------------------------
 O      0   0   0   0.000000     0.000     0.000
 N      1   0   0   2.654508     0.000     0.000
 C      2   1   0   2.396584   111.591     0.000
 C      3   2   1   2.861183   139.571   357.857
 N      4   3   2   2.845677    88.532   181.585
 C      3   2   1   2.792034   130.145   184.888
 C      6   3   2   2.854995   127.949   321.714
 C      7   6   3   2.851252    60.148   109.699
 O      8   7   6   2.623783   122.437   251.358
 H      1   2   3   1.820417   102.508   182.426
 H      4   3   2   2.070555   113.771   299.194
 H      4   3   2   2.067730   115.805    66.486
 H      5   4   3   1.919715   111.615   117.828
 H      7   6   3   2.051446   116.539   217.834
 H      7   6   3   2.051913   116.980     0.698
 H      8   7   6   2.054267   117.037   107.642
 H      9   8   7   1.831661   108.332    58.160

---------------------
BASIS SET INFORMATION
---------------------
There are 4 groups of distinct atoms

 Group   1 Type O   : 11s6p2d1f contracted to 5s3p2d1f pattern {62111/411/11/1}
 Group   2 Type N   : 11s6p2d1f contracted to 5s3p2d1f pattern {62111/411/11/1}
 Group   3 Type C   : 11s6p2d1f contracted to 5s3p2d1f pattern {62111/411/11/1}
 Group   4 Type H   : 5s1p contracted to 3s1p pattern {311/1}

Atom   0O    basis set group =>   1
Atom   1N    basis set group =>   2
Atom   2C    basis set group =>   3
Atom   3C    basis set group =>   3
Atom   4N    basis set group =>   2
Atom   5C    basis set group =>   3
Atom   6C    basis set group =>   3
Atom   7C    basis set group =>   3
Atom   8O    basis set group =>   1
Atom   9H    basis set group =>   4
Atom  10H    basis set group =>   4
Atom  11H    basis set group =>   4
Atom  12H    basis set group =>   4
Atom  13H    basis set group =>   4
Atom  14H    basis set group =>   4
Atom  15H    basis set group =>   4
Atom  16H    basis set group =>   4
-------------------------------
AUXILIARY BASIS SET INFORMATION
-------------------------------
There are 4 groups of distinct atoms

 Group   1 Type O   : 14s10p6d2f1g contracted to 10s8p4d2f1g pattern {5111111111/31111111/3111/11/1}
 Group   2 Type N   : 14s10p6d2f1g contracted to 10s8p4d2f1g pattern {5111111111/31111111/3111/11/1}
 Group   3 Type C   : 14s10p6d2f1g contracted to 10s8p5d1f1g pattern {5111111111/31111111/21111/2/1}
 Group   4 Type H   : 4s2p2d contracted to 2s2p2d pattern {31/11/11}

Atom   0O    basis set group =>   1
Atom   1N    basis set group =>   2
Atom   2C    basis set group =>   3
Atom   3C    basis set group =>   3
Atom   4N    basis set group =>   2
Atom   5C    basis set group =>   3
Atom   6C    basis set group =>   3
Atom   7C    basis set group =>   3
Atom   8O    basis set group =>   1
Atom   9H    basis set group =>   4
Atom  10H    basis set group =>   4
Atom  11H    basis set group =>   4
Atom  12H    basis set group =>   4
Atom  13H    basis set group =>   4
Atom  14H    basis set group =>   4
Atom  15H    basis set group =>   4
Atom  16H    basis set group =>   4
------------------------------------------------------------------------------
                           ORCA GTO INTEGRAL CALCULATION
                           -- RI-GTO INTEGRALS CHOSEN --
------------------------------------------------------------------------------

                         BASIS SET STATISTICS AND STARTUP INFO

Gaussian basis set:
 # of primitive gaussian shells          ...  228
 # of primitive gaussian functions       ...  478
 # of contracted shells                  ...  131
 # of contracted basis functions         ...  327
 Highest angular momentum                ...    3
 Maximum contraction depth               ...    6
Auxiliary gaussian basis set:
 # of primitive gaussian shells          ...  361
 # of primitive gaussian functions       ... 1033
 # of contracted shells                  ...  273
 # of contracted aux-basis functions     ...  827
 Highest angular momentum                ...    4
 Maximum contraction depth               ...    5
Ratio of auxiliary to basis functions    ...  2.53
Integral package used                  ... LIBINT
 One Electron integrals                  ... done
 Ordering auxiliary basis shells         ... done
 Integral threshhold             Thresh  ...  2.500e-11
 Primitive cut-off               TCut    ...  2.500e-12
 Pre-screening matrix                    ... done
 Shell pair data                         ... 
 Ordering of the shell pairs             ... done (   0.001 sec) 7869 of 8646 pairs
 Determination of significant pairs      ... done (   0.000 sec)
 Creation of shell pair data             ... done (   0.002 sec)
 Storage of shell pair data              ... done (   0.001 sec)
 Shell pair data done in (   0.005 sec)
 Computing two index integrals           ... done
 Cholesky decomposition of the V-matrix  ... done


Timings:
 Total evaluation time                   ...   0.366 sec (  0.006 min)
 One electron matrix time                ...   0.078 sec (  0.001 min) = 21.3%
 Schwartz matrix evaluation time         ...   0.204 sec (  0.003 min) = 55.7%
 Two index repulsion integral time       ...   0.021 sec (  0.000 min) =  5.8%
 Cholesky decomposition of V             ...   0.030 sec (  0.001 min) =  8.3%
 Three index repulsion integral time     ...   0.000 sec (  0.000 min) =  0.0%

-------------------------------------------------------------------------------
                                 ORCA SCF
-------------------------------------------------------------------------------

------------
SCF SETTINGS
------------
Hamiltonian:
 Ab initio Hamiltonian  Method          .... Hartree-Fock(GTOs)
 RI-approximation to the Coulomb term is turned on
   Number of auxiliary basis functions  .... 827
   RI-JK (J+K treated both via RI)      .... on


General Settings:
 Integral files         IntName         .... dsgdb9nsd_023059
 Hartree-Fock type      HFTyp           .... RHF
 Total Charge           Charge          ....    0
 Multiplicity           Mult            ....    1
 Number of Electrons    NEL             ....   68
 Basis Dimension        Dim             ....  327
 Nuclear Repulsion      ENuc            ....    458.8364996878 Eh

Convergence Acceleration:
 DIIS                   CNVDIIS         .... on
   Start iteration      DIISMaxIt       ....    12
   Startup error        DIISStart       ....  0.200000
   # of expansion vecs  DIISMaxEq       ....     5
   Bias factor          DIISBfac        ....   1.050
   Max. coefficient     DIISMaxC        ....  10.000
 Newton-Raphson         CNVNR           .... off
 SOSCF                  CNVSOSCF        .... on
   Start iteration      SOSCFMaxIt      ....   150
   Startup grad/error   SOSCFStart      ....  0.003300
 Level Shifting         CNVShift        .... on
   Level shift para.    LevelShift      ....    0.2500
   Turn off err/grad.   ShiftErr        ....    0.0010
 Zerner damping         CNVZerner       .... off
 Static damping         CNVDamp         .... on
   Fraction old density DampFac         ....    0.7000
   Max. Damping (<1)    DampMax         ....    0.9800
   Min. Damping (>=0)   DampMin         ....    0.0000
   Turn off err/grad.   DampErr         ....    0.1000
 Fernandez-Rico         CNVRico         .... off

SCF Procedure:
 Maximum # iterations   MaxIter         ....   125
 SCF integral mode      SCFMode         .... Direct
   Integral package                     .... LIBINT
 Reset frequeny         DirectResetFreq ....    20
 Integral Threshold     Thresh          ....  2.500e-11 Eh
 Primitive CutOff       TCut            ....  2.500e-12 Eh

Convergence Tolerance:
 Convergence Check Mode ConvCheckMode   .... Total+1el-Energy
 Energy Change          TolE            ....  1.000e-08 Eh
 1-El. energy change                    ....  1.000e-05 Eh
 Orbital Gradient       TolG            ....  1.000e-05
 Orbital Rotation angle TolX            ....  1.000e-05
 DIIS Error             TolErr          ....  5.000e-07


Diagonalization of the overlap matrix:
Smallest eigenvalue                        ... 9.449e-05
Time for diagonalization                   ...    0.030 sec
Threshold for overlap eigenvalues          ... 1.000e-08
Number of eigenvalues below threshold      ... 0
Time for construction of square roots      ...    0.015 sec
Total time needed                          ...    0.045 sec

-------------------
DFT GRID GENERATION
-------------------

General Integration Accuracy     IntAcc      ...  4.340
Radial Grid Type                 RadialGrid  ... Gauss-Chebyshev
Angular Grid (max. acc.)         AngularGrid ... Lebedev-110
Angular grid pruning method      GridPruning ... 3 (G Style)
Weight generation scheme         WeightScheme... Becke
Basis function cutoff            BFCut       ...    1.0000e-11
Integration weight cutoff        WCut        ...    1.0000e-14
Grids for H and He will be reduced by one unit

# of grid points (after initial pruning)     ...  21468 (   0.0 sec)
# of grid points (after weights+screening)   ...  19856 (   0.1 sec)
nearest neighbour list constructed           ...    0.0 sec
Grid point re-assignment to atoms done       ...    0.0 sec
Grid point division into batches done        ...    0.0 sec
Reduced shell lists constructed in    1.2 sec

Total number of grid points                  ...    19856
Total number of batches                      ...      318
Average number of points per batch           ...       62
Average number of grid points per atom       ...     1168
Average number of shells per batch           ...    87.49 (66.79%)
Average number of basis functions per batch  ...   223.39 (68.31%)
Average number of large shells per batch     ...    68.04 (77.76%)
Average number of large basis fcns per batch ...   171.20 (76.64%)
Average number of aux-shells per batch       ...    87.49 (32.05%)
Average number of aux functions per batch    ...   223.39 (  inf%)
Maximum spatial batch extension              ...  19.75, 19.35, 21.59 au
Average spatial batch extension              ...   3.68,  3.66,  3.84 au

Time for grid setup =    1.251 sec

------------------------------
INITIAL GUESS: MODEL POTENTIAL
------------------------------
Loading Hartree-Fock densities                     ... done
Calculating cut-offs                               ... done
Setting up the integral package                    ... done
Initializing the effective Hamiltonian             ... done
Starting the Coulomb interaction                   ... done (   0.6 sec)
Reading the grid                                   ... done
Mapping shells                                     ... done
Starting the XC term evaluation                    ... done (   0.6 sec)
Transforming the Hamiltonian                       ... done (   0.0 sec)
Diagonalizing the Hamiltonian                      ... done (   0.0 sec)
Back transforming the eigenvectors                 ... done (   0.0 sec)
Now organizing SCF variables                       ... done
                      ------------------
                      INITIAL GUESS DONE (   2.6 sec)
                      ------------------
--------------
SCF ITERATIONS
--------------
ITER       Energy         Delta-E        Max-DP      RMS-DP      [F,P]     Damp
  0   -452.2903044707   0.000000000000 0.03365124  0.00082354  0.2965449 0.7000
  1   -452.1311294069   0.159175063827 0.04621076  0.00088254  0.2484616 0.7000
                               ***Turning on DIIS***
  2   -452.1675213187  -0.036391911769 0.03127014  0.00063626  0.1842798 0.7000
  3   -453.2645764904  -1.097055171763 0.01214677  0.00032513  0.1307739 0.7000
  4   -452.6550745450   0.609501945399 0.05362407  0.00086437  0.0856602 0.0000
  5   -452.7251076707  -0.070033125621 0.00878363  0.00021493  0.0254973 0.0000
  6   -452.5992359602   0.125871710510 0.00383449  0.00009970  0.0087046 0.0000
  7   -452.5990933745   0.000142585657 0.00259955  0.00005529  0.0042792 0.0000
                      *** Initiating the SOSCF procedure ***
                           *** Shutting down DIIS ***
                      *** Re-Reading the Fockian *** 
                      *** Removing any level shift *** 
ITER      Energy       Delta-E        Grad      Rot      Max-DP    RMS-DP
  8   -452.59907112   0.0000222530  0.000672  0.000672  0.001229  0.000035
  9   -452.63623828  -0.0371671555  0.000149  0.000247  0.000369  0.000012
 10   -452.63623953  -0.0000012502  0.000052  0.000141  0.000162  0.000006
 11   -452.63623987  -0.0000003381  0.000017  0.000044  0.000062  0.000001
 12   -452.63623989  -0.0000000231  0.000005  0.000020  0.000031  0.000001
 13   -452.63623989  -0.0000000045  0.000003  0.000005  0.000011  0.000000
                  ***Gradient check signals convergence***
              ***Rediagonalizing the Fockian in SOSCF/NRSCF***

               *****************************************************
               *                     SUCCESS                       *
               *           SCF CONVERGED AFTER  14 CYCLES          *
               *****************************************************


----------------
TOTAL SCF ENERGY
----------------

Total Energy       :         -452.63623989 Eh          -12316.85826 eV

Components:
Nuclear Repulsion  :          458.83649969 Eh           12485.57591 eV
Electronic Energy  :         -911.47273958 Eh          -24802.43418 eV

One Electron Energy:        -1528.23942222 Eh          -41585.50884 eV
Two Electron Energy:          616.76668263 Eh           16783.07467 eV

Virial components:
Potential Energy   :         -904.65476805 Eh          -24616.90774 eV
Kinetic Energy     :          452.01852816 Eh           12300.04947 eV
Virial Ratio       :            2.00136656


---------------
SCF CONVERGENCE
---------------

  Last Energy change         ...   -5.5957e-10  Tolerance :   1.0000e-08
  Last MAX-Density change    ...    4.6319e-06  Tolerance :   1.0000e-07
  Last RMS-Density change    ...    1.0246e-07  Tolerance :   5.0000e-09
  Last Orbital Gradient      ...    8.8334e-07  Tolerance :   1.0000e-05
  Last Orbital Rotation      ...    2.9431e-06  Tolerance :   1.0000e-05

             **** THE GBW FILE WAS UPDATED (dsgdb9nsd_023059.gbw) ****
             **** DENSITY FILE WAS UPDATED (dsgdb9nsd_023059.scfp.tmp) ****
             **** ENERGY FILE WAS UPDATED (dsgdb9nsd_023059.en.tmp) ****
----------------
ORBITAL ENERGIES
----------------

  NO   OCC          E(Eh)            E(eV) 
   0   2.0000     -20.603972      -560.6626 
   1   2.0000     -20.561503      -559.5069 
   2   2.0000     -15.627961      -425.2584 
   3   2.0000     -15.567620      -423.6165 
   4   2.0000     -11.298419      -307.4456 
   5   2.0000     -11.294268      -307.3327 
   6   2.0000     -11.280499      -306.9580 
   7   2.0000     -11.280342      -306.9537 
   8   2.0000     -11.235031      -305.7207 
   9   2.0000      -1.429936       -38.9105 
  10   2.0000      -1.376022       -37.4435 
  11   2.0000      -1.267734       -34.4968 
  12   2.0000      -1.153934       -31.4001 
  13   2.0000      -1.114289       -30.3214 
  14   2.0000      -0.941076       -25.6080 
  15   2.0000      -0.877094       -23.8669 
  16   2.0000      -0.838475       -22.8161 
  17   2.0000      -0.742127       -20.1943 
  18   2.0000      -0.722354       -19.6563 
  19   2.0000      -0.701685       -19.0938 
  20   2.0000      -0.670163       -18.2361 
  21   2.0000      -0.657270       -17.8852 
  22   2.0000      -0.614446       -16.7199 
  23   2.0000      -0.599983       -16.3264 
  24   2.0000      -0.587775       -15.9942 
  25   2.0000      -0.569065       -15.4851 
  26   2.0000      -0.563351       -15.3296 
  27   2.0000      -0.542041       -14.7497 
  28   2.0000      -0.528002       -14.3677 
  29   2.0000      -0.479027       -13.0350 
  30   2.0000      -0.451088       -12.2747 
  31   2.0000      -0.420493       -11.4422 
  32   2.0000      -0.398408       -10.8412 
  33   2.0000      -0.357603        -9.7309 
  34   0.0000       0.126598         3.4449 
  35   0.0000       0.138126         3.7586 
  36   0.0000       0.144937         3.9439 
  37   0.0000       0.163947         4.4612 
  38   0.0000       0.174757         4.7554 
  39   0.0000       0.189137         5.1467 
  40   0.0000       0.203930         5.5492 
  41   0.0000       0.221439         6.0257 
  42   0.0000       0.224372         6.1055 
  43   0.0000       0.230944         6.2843 
  44   0.0000       0.252611         6.8739 
  45   0.0000       0.263472         7.1694 
  46   0.0000       0.273663         7.4467 
  47   0.0000       0.304590         8.2883 
  48   0.0000       0.310956         8.4615 
  49   0.0000       0.331778         9.0282 
  50   0.0000       0.348646         9.4871 
  51   0.0000       0.351507         9.5650 
  52   0.0000       0.387714        10.5502 
  53   0.0000       0.395796        10.7701 
  54   0.0000       0.414180        11.2704 
  55   0.0000       0.428463        11.6591 
  56   0.0000       0.457310        12.4440 
  57   0.0000       0.462628        12.5888 
  58   0.0000       0.473505        12.8847 
  59   0.0000       0.482685        13.1345 
  60   0.0000       0.499849        13.6016 
  61   0.0000       0.508898        13.8478 
  62   0.0000       0.509585        13.8665 
  63   0.0000       0.523132        14.2351 
  64   0.0000       0.526058        14.3148 
  65   0.0000       0.540401        14.7051 
  66   0.0000       0.548991        14.9388 
  67   0.0000       0.569749        15.5037 
  68   0.0000       0.576639        15.6911 
  69   0.0000       0.588963        16.0265 
  70   0.0000       0.600874        16.3506 
  71   0.0000       0.606805        16.5120 
  72   0.0000       0.615481        16.7481 
  73   0.0000       0.622138        16.9292 
  74   0.0000       0.633559        17.2400 
  75   0.0000       0.639073        17.3901 
  76   0.0000       0.644145        17.5281 
  77   0.0000       0.672174        18.2908 
  78   0.0000       0.673158        18.3175 
  79   0.0000       0.693927        18.8827 
  80   0.0000       0.707371        19.2485 
  81   0.0000       0.713950        19.4276 
  82   0.0000       0.727185        19.7877 
  83   0.0000       0.732217        19.9246 
  84   0.0000       0.740106        20.1393 
  85   0.0000       0.779849        21.2208 
  86   0.0000       0.793482        21.5918 
  87   0.0000       0.804534        21.8925 
  88   0.0000       0.832002        22.6399 
  89   0.0000       0.839828        22.8529 
  90   0.0000       0.862712        23.4756 
  91   0.0000       0.883065        24.0294 
  92   0.0000       0.898718        24.4554 
  93   0.0000       0.921292        25.0696 
  94   0.0000       0.960033        26.1238 
  95   0.0000       1.006943        27.4003 
  96   0.0000       1.031907        28.0796 
  97   0.0000       1.043131        28.3850 
  98   0.0000       1.072142        29.1745 
  99   0.0000       1.089376        29.6434 
 100   0.0000       1.100498        29.9461 
 101   0.0000       1.119243        30.4562 
 102   0.0000       1.144317        31.1385 
 103   0.0000       1.157912        31.5084 
 104   0.0000       1.170095        31.8399 
 105   0.0000       1.201964        32.7071 
 106   0.0000       1.235015        33.6065 
 107   0.0000       1.258470        34.2447 
 108   0.0000       1.269106        34.5341 
 109   0.0000       1.277981        34.7756 
 110   0.0000       1.292813        35.1792 
 111   0.0000       1.316660        35.8281 
 112   0.0000       1.343001        36.5449 
 113   0.0000       1.356989        36.9256 
 114   0.0000       1.372954        37.3600 
 115   0.0000       1.380191        37.5569 
 116   0.0000       1.430095        38.9149 
 117   0.0000       1.466015        39.8923 
 118   0.0000       1.473866        40.1059 
 119   0.0000       1.475107        40.1397 
 120   0.0000       1.495933        40.7064 
 121   0.0000       1.525907        41.5220 
 122   0.0000       1.552915        42.2570 
 123   0.0000       1.616296        43.9816 
 124   0.0000       1.635361        44.5004 
 125   0.0000       1.663396        45.2633 
 126   0.0000       1.671883        45.4943 
 127   0.0000       1.704423        46.3797 
 128   0.0000       1.725175        46.9444 
 129   0.0000       1.739295        47.3286 
 130   0.0000       1.756084        47.7855 
 131   0.0000       1.766757        48.0759 
 132   0.0000       1.796314        48.8802 
 133   0.0000       1.844744        50.1980 
 134   0.0000       1.851788        50.3897 
 135   0.0000       1.862682        50.6861 
 136   0.0000       1.881051        51.1860 
 137   0.0000       1.906945        51.8906 
 138   0.0000       1.920585        52.2618 
 139   0.0000       1.936359        52.6910 
 140   0.0000       1.949384        53.0454 
 141   0.0000       1.977374        53.8071 
 142   0.0000       1.987637        54.0864 
 143   0.0000       2.008229        54.6467 
 144   0.0000       2.028881        55.2087 
 145   0.0000       2.042332        55.5747 
 146   0.0000       2.046395        55.6852 
 147   0.0000       2.075466        56.4763 
 148   0.0000       2.091900        56.9235 
 149   0.0000       2.139628        58.2222 
 150   0.0000       2.145075        58.3705 
 151   0.0000       2.163008        58.8584 
 152   0.0000       2.186470        59.4969 
 153   0.0000       2.212344        60.2009 
 154   0.0000       2.214390        60.2566 
 155   0.0000       2.237689        60.8906 
 156   0.0000       2.258017        61.4438 
 157   0.0000       2.269917        61.7676 
 158   0.0000       2.335737        63.5586 
 159   0.0000       2.374417        64.6112 
 160   0.0000       2.387025        64.9543 
 161   0.0000       2.402068        65.3636 
 162   0.0000       2.439870        66.3922 
 163   0.0000       2.452405        66.7333 
 164   0.0000       2.473117        67.2969 
 165   0.0000       2.483633        67.5831 
 166   0.0000       2.501240        68.0622 
 167   0.0000       2.521881        68.6239 
 168   0.0000       2.537665        69.0534 
 169   0.0000       2.555561        69.5403 
 170   0.0000       2.584196        70.3195 
 171   0.0000       2.596953        70.6667 
 172   0.0000       2.615723        71.1774 
 173   0.0000       2.643320        71.9284 
 174   0.0000       2.677765        72.8657 
 175   0.0000       2.696705        73.3811 
 176   0.0000       2.720857        74.0383 
 177   0.0000       2.740737        74.5792 
 178   0.0000       2.748485        74.7901 
 179   0.0000       2.758219        75.0550 
 180   0.0000       2.775626        75.5286 
 181   0.0000       2.792788        75.9956 
 182   0.0000       2.801903        76.2437 
 183   0.0000       2.827720        76.9462 
 184   0.0000       2.834885        77.1411 
 185   0.0000       2.864773        77.9544 
 186   0.0000       2.906049        79.0776 
 187   0.0000       2.926629        79.6376 
 188   0.0000       2.941953        80.0546 
 189   0.0000       2.977969        81.0346 
 190   0.0000       2.992620        81.4333 
 191   0.0000       3.025537        82.3290 
 192   0.0000       3.034703        82.5785 
 193   0.0000       3.063076        83.3505 
 194   0.0000       3.073348        83.6301 
 195   0.0000       3.089880        84.0799 
 196   0.0000       3.103386        84.4474 
 197   0.0000       3.118005        84.8452 
 198   0.0000       3.134452        85.2928 
 199   0.0000       3.170490        86.2734 
 200   0.0000       3.198808        87.0440 
 201   0.0000       3.217876        87.5629 
 202   0.0000       3.246496        88.3417 
 203   0.0000       3.266417        88.8837 
 204   0.0000       3.268998        88.9540 
 205   0.0000       3.296197        89.6941 
 206   0.0000       3.319288        90.3224 
 207   0.0000       3.343633        90.9849 
 208   0.0000       3.362218        91.4906 
 209   0.0000       3.385633        92.1278 
 210   0.0000       3.409910        92.7884 
 211   0.0000       3.425690        93.2178 
 212   0.0000       3.434382        93.4543 
 213   0.0000       3.464723        94.2799 
 214   0.0000       3.485686        94.8503 
 215   0.0000       3.501331        95.2761 
 216   0.0000       3.520795        95.8057 
 217   0.0000       3.538019        96.2744 
 218   0.0000       3.556127        96.7671 
 219   0.0000       3.559014        96.8457 
 220   0.0000       3.577683        97.3537 
 221   0.0000       3.601030        97.9890 
 222   0.0000       3.608694        98.1976 
 223   0.0000       3.642359        99.1136 
 224   0.0000       3.660896        99.6180 
 225   0.0000       3.705602       100.8346 
 226   0.0000       3.722160       101.2851 
 227   0.0000       3.742140       101.8288 
 228   0.0000       3.791891       103.1826 
 229   0.0000       3.802394       103.4684 
 230   0.0000       3.824558       104.0715 
 231   0.0000       3.867059       105.2280 
 232   0.0000       3.897534       106.0573 
 233   0.0000       3.926032       106.8327 
 234   0.0000       3.960079       107.7592 
 235   0.0000       3.983441       108.3949 
 236   0.0000       3.998517       108.8052 
 237   0.0000       4.012412       109.1833 
 238   0.0000       4.079865       111.0188 
 239   0.0000       4.108708       111.8036 
 240   0.0000       4.140148       112.6592 
 241   0.0000       4.171222       113.5047 
 242   0.0000       4.181849       113.7939 
 243   0.0000       4.215447       114.7081 
 244   0.0000       4.219857       114.8281 
 245   0.0000       4.246917       115.5645 
 246   0.0000       4.256911       115.8364 
 247   0.0000       4.296728       116.9199 
 248   0.0000       4.319518       117.5401 
 249   0.0000       4.376029       119.0778 
 250   0.0000       4.396119       119.6245 
 251   0.0000       4.404390       119.8496 
 252   0.0000       4.436174       120.7144 
 253   0.0000       4.492916       122.2585 
 254   0.0000       4.502587       122.5216 
 255   0.0000       4.528381       123.2235 
 256   0.0000       4.553958       123.9195 
 257   0.0000       4.590957       124.9263 
 258   0.0000       4.622584       125.7869 
 259   0.0000       4.638273       126.2138 
 260   0.0000       4.697410       127.8230 
 261   0.0000       4.740667       129.0001 
 262   0.0000       4.759391       129.5096 
 263   0.0000       4.857015       132.1661 
 264   0.0000       4.886051       132.9562 
 265   0.0000       4.929966       134.1512 
 266   0.0000       5.018670       136.5650 
 267   0.0000       5.038199       137.0964 
 268   0.0000       5.052025       137.4726 
 269   0.0000       5.063373       137.7814 
 270   0.0000       5.111990       139.1043 
 271   0.0000       5.145675       140.0209 
 272   0.0000       5.192055       141.2830 
 273   0.0000       5.231845       142.3657 
 274   0.0000       5.256318       143.0317 
 275   0.0000       5.328159       144.9866 
 276   0.0000       5.349288       145.5615 
 277   0.0000       5.378965       146.3691 
 278   0.0000       5.432481       147.8253 
 279   0.0000       5.457070       148.4944 
 280   0.0000       5.507918       149.8781 
 281   0.0000       5.515870       150.0945 
 282   0.0000       5.557573       151.2293 
 283   0.0000       5.584028       151.9491 
 284   0.0000       5.623096       153.0122 
 285   0.0000       5.665190       154.1576 
 286   0.0000       5.714042       155.4870 
 287   0.0000       5.737038       156.1127 
 288   0.0000       5.761404       156.7758 
 289   0.0000       5.818889       158.3400 
 290   0.0000       5.837122       158.8362 
 291   0.0000       5.859662       159.4495 
 292   0.0000       5.879013       159.9761 
 293   0.0000       5.906759       160.7311 
 294   0.0000       5.934309       161.4808 
 295   0.0000       6.023140       163.8980 
 296   0.0000       6.036900       164.2724 
 297   0.0000       6.204527       168.8338 
 298   0.0000       6.241354       169.8359 
 299   0.0000       6.286708       171.0700 
 300   0.0000       6.327241       172.1730 
 301   0.0000       6.334626       172.3739 
 302   0.0000       6.341162       172.5518 
 303   0.0000       6.465467       175.9343 
 304   0.0000       6.551241       178.2683 
 305   0.0000       6.758545       183.9094 
 306   0.0000       6.797802       184.9776 
 307   0.0000       6.889867       187.4828 
 308   0.0000       7.005271       190.6231 
 309   0.0000       7.112183       193.5323 
 310   0.0000       7.171737       195.1529 
 311   0.0000       7.288053       198.3180 
 312   0.0000       7.308638       198.8781 
 313   0.0000       7.336841       199.6456 
 314   0.0000       7.514374       204.4765 
 315   0.0000       7.646839       208.0811 
 316   0.0000       7.697126       209.4494 
 317   0.0000       7.991505       217.4599 
 318   0.0000      23.460572       638.3946 
 319   0.0000      23.534171       640.3974 
 320   0.0000      23.724339       645.5721 
 321   0.0000      24.077251       655.1753 
 322   0.0000      24.413775       664.3326 
 323   0.0000      33.489418       911.2934 
 324   0.0000      33.636352       915.2917 
 325   0.0000      45.295552      1232.5546 
 326   0.0000      45.503899      1238.2240 

                    ********************************
                    * MULLIKEN POPULATION ANALYSIS *
                    ********************************

-----------------------
MULLIKEN ATOMIC CHARGES
-----------------------
   0 O :   -0.425687
   1 N :   -0.227957
   2 C :    0.130921
   3 C :   -0.041513
   4 N :   -0.354489
   5 C :    0.046760
   6 C :   -0.188836
   7 C :    0.075031
   8 O :   -0.525514
   9 H :    0.350001
  10 H :    0.125989
  11 H :    0.116545
  12 H :    0.210480
  13 H :    0.114663
  14 H :    0.126305
  15 H :    0.110882
  16 H :    0.356419
Sum of atomic charges:    0.0000000

--------------------------------
MULLIKEN REDUCED ORBITAL CHARGES
--------------------------------
  0 O s       :     3.818627  s :     3.818627
      pz      :     1.896536  p :     4.565033
      px      :     1.491804
      py      :     1.176693
      dz2     :     0.005112  d :     0.039583
      dxz     :     0.002831
      dyz     :     0.005272
      dx2y2   :     0.020476
      dxy     :     0.005892
      f0      :     0.000303  f :     0.002444
      f+1     :     0.000279
      f-1     :     0.000534
      f+2     :     0.000280
      f-2     :     0.000040
      f+3     :     0.000436
      f-3     :     0.000572
  1 N s       :     3.649291  s :     3.649291
      pz      :     1.231015  p :     3.481367
      px      :     1.387382
      py      :     0.862970
      dz2     :     0.009305  d :     0.090809
      dxz     :     0.014775
      dyz     :     0.019549
      dx2y2   :     0.029112
      dxy     :     0.018068
      f0      :     0.000751  f :     0.006490
      f+1     :     0.000519
      f-1     :     0.000878
      f+2     :     0.001032
      f-2     :     0.000434
      f+3     :     0.001300
      f-3     :     0.001576
  2 C s       :     3.122014  s :     3.122014
      pz      :     0.810426  p :     2.574828
      px      :     0.820823
      py      :     0.943579
      dz2     :     0.012826  d :     0.155374
      dxz     :     0.036131
      dyz     :     0.019073
      dx2y2   :     0.055050
      dxy     :     0.032294
      f0      :     0.001821  f :     0.016862
      f+1     :     0.002512
      f-1     :     0.001167
      f+2     :     0.001974
      f-2     :     0.001961
      f+3     :     0.004223
      f-3     :     0.003204
  3 C s       :     3.175268  s :     3.175268
      pz      :     1.052722  p :     2.750135
      px      :     0.877626
      py      :     0.819787
      dz2     :     0.010562  d :     0.107253
      dxz     :     0.013373
      dyz     :     0.034517
      dx2y2   :     0.026642
      dxy     :     0.022160
      f0      :     0.000922  f :     0.008856
      f+1     :     0.000533
      f-1     :     0.001640
      f+2     :     0.001069
      f-2     :     0.000936
      f+3     :     0.001751
      f-3     :     0.002005
  4 N s       :     3.480669  s :     3.480669
      pz      :     1.562757  p :     3.804469
      px      :     1.105285
      py      :     1.136427
      dz2     :     0.008322  d :     0.065862
      dxz     :     0.018193
      dyz     :     0.007569
      dx2y2   :     0.018847
      dxy     :     0.012931
      f0      :     0.000385  f :     0.003489
      f+1     :     0.000492
      f-1     :     0.000417
      f+2     :     0.000539
      f-2     :     0.000371
      f+3     :     0.000676
      f-3     :     0.000610
  5 C s       :     3.169566  s :     3.169566
      pz      :     1.006043  p :     2.631240
      px      :     0.789035
      py      :     0.836162
      dz2     :     0.022079  d :     0.136661
      dxz     :     0.031245
      dyz     :     0.022919
      dx2y2   :     0.026869
      dxy     :     0.033550
      f0      :     0.001622  f :     0.015773
      f+1     :     0.001528
      f-1     :     0.002154
      f+2     :     0.002321
      f-2     :     0.001919
      f+3     :     0.003256
      f-3     :     0.002973
  6 C s       :     3.192485  s :     3.192485
      pz      :     0.965819  p :     2.916902
      px      :     0.995860
      py      :     0.955223
      dz2     :     0.019177  d :     0.071707
      dxz     :     0.010104
      dyz     :     0.016177
      dx2y2   :     0.013452
      dxy     :     0.012797
      f0      :     0.001657  f :     0.007742
      f+1     :     0.000923
      f-1     :     0.001386
      f+2     :     0.000615
      f-2     :     0.001411
      f+3     :     0.001150
      f-3     :     0.000601
  7 C s       :     3.180617  s :     3.180617
      pz      :     0.748344  p :     2.579803
      px      :     0.867966
      py      :     0.963493
      dz2     :     0.038543  d :     0.149627
      dxz     :     0.029603
      dyz     :     0.035135
      dx2y2   :     0.018103
      dxy     :     0.028242
      f0      :     0.003036  f :     0.014924
      f+1     :     0.002927
      f-1     :     0.002043
      f+2     :     0.002355
      f-2     :     0.002449
      f+3     :     0.001080
      f-3     :     0.001033
  8 O s       :     3.787825  s :     3.787825
      pz      :     1.608934  p :     4.701747
      px      :     1.557210
      py      :     1.535603
      dz2     :     0.005948  d :     0.034078
      dxz     :     0.011095
      dyz     :     0.006892
      dx2y2   :     0.005725
      dxy     :     0.004418
      f0      :     0.000169  f :     0.001864
      f+1     :     0.000314
      f-1     :     0.000072
      f+2     :     0.000310
      f-2     :     0.000364
      f+3     :     0.000456
      f-3     :     0.000177
  9 H s       :     0.605470  s :     0.605470
      pz      :     0.015831  p :     0.044529
      px      :     0.019734
      py      :     0.008964
 10 H s       :     0.852192  s :     0.852192
      pz      :     0.009069  p :     0.021819
      px      :     0.005811
      py      :     0.006939
 11 H s       :     0.860941  s :     0.860941
      pz      :     0.012916  p :     0.022514
      px      :     0.003502
      py      :     0.006096
 12 H s       :     0.752115  s :     0.752115
      pz      :     0.014157  p :     0.037405
      px      :     0.015826
      py      :     0.007422
 13 H s       :     0.861841  s :     0.861841
      pz      :     0.007044  p :     0.023496
      px      :     0.005936
      py      :     0.010516
 14 H s       :     0.850350  s :     0.850350
      pz      :     0.004964  p :     0.023345
      px      :     0.014581
      py      :     0.003801
 15 H s       :     0.866032  s :     0.866032
      pz      :     0.004941  p :     0.023086
      px      :     0.009501
      py      :     0.008644
 16 H s       :     0.596077  s :     0.596077
      pz      :     0.011814  p :     0.047504
      px      :     0.014326
      py      :     0.021363


                     *******************************
                     * LOEWDIN POPULATION ANALYSIS *
                     *******************************

----------------------
LOEWDIN ATOMIC CHARGES
----------------------
   0 O :   -0.105213
   1 N :   -0.021649
   2 C :   -0.202443
   3 C :   -0.177803
   4 N :    0.004180
   5 C :   -0.228476
   6 C :   -0.154508
   7 C :   -0.260813
   8 O :   -0.022249
   9 H :    0.171121
  10 H :    0.128036
  11 H :    0.129576
  12 H :    0.156816
  13 H :    0.132223
  14 H :    0.133182
  15 H :    0.134204
  16 H :    0.183815

-------------------------------
LOEWDIN REDUCED ORBITAL CHARGES
-------------------------------
  0 O s       :     3.432281  s :     3.432281
      pz      :     1.830320  p :     4.576291
      px      :     1.491002
      py      :     1.254969
      dz2     :     0.010466  d :     0.090056
      dxz     :     0.002611
      dyz     :     0.016381
      dx2y2   :     0.037262
      dxy     :     0.023336
      f0      :     0.000591  f :     0.006585
      f+1     :     0.000306
      f-1     :     0.000961
      f+2     :     0.000964
      f-2     :     0.000058
      f+3     :     0.002137
      f-3     :     0.001568
  1 N s       :     3.149688  s :     3.149688
      pz      :     1.156639  p :     3.551766
      px      :     1.450426
      py      :     0.944701
      dz2     :     0.027561  d :     0.290592
      dxz     :     0.023007
      dyz     :     0.063177
      dx2y2   :     0.105695
      dxy     :     0.071151
      f0      :     0.002307  f :     0.029603
      f+1     :     0.001405
      f-1     :     0.003343
      f+2     :     0.005705
      f-2     :     0.001233
      f+3     :     0.007990
      f-3     :     0.007619
  2 C s       :     2.734011  s :     2.734011
      pz      :     0.763648  p :     2.745389
      px      :     1.009241
      py      :     0.972500
      dz2     :     0.057383  d :     0.644732
      dxz     :     0.126499
      dyz     :     0.074307
      dx2y2   :     0.216911
      dxy     :     0.169631
      f0      :     0.005958  f :     0.078312
      f+1     :     0.008729
      f-1     :     0.004420
      f+2     :     0.011961
      f-2     :     0.008339
      f+3     :     0.024127
      f-3     :     0.014778
  3 C s       :     2.788104  s :     2.788104
      pz      :     1.043496  p :     2.900792
      px      :     0.963279
      py      :     0.894017
      dz2     :     0.050115  d :     0.434692
      dxz     :     0.050461
      dyz     :     0.132054
      dx2y2   :     0.100996
      dxy     :     0.101066
      f0      :     0.005601  f :     0.054215
      f+1     :     0.003837
      f-1     :     0.006062
      f+2     :     0.006598
      f-2     :     0.006151
      f+3     :     0.011853
      f-3     :     0.014113
  4 N s       :     3.050619  s :     3.050619
      pz      :     1.480009  p :     3.742967
      px      :     1.119580
      py      :     1.143379
      dz2     :     0.017689  d :     0.186901
      dxz     :     0.046940
      dyz     :     0.023156
      dx2y2   :     0.056506
      dxy     :     0.042611
      f0      :     0.000968  f :     0.015332
      f+1     :     0.002097
      f-1     :     0.001012
      f+2     :     0.002681
      f-2     :     0.001563
      f+3     :     0.004016
      f-3     :     0.002995
  5 C s       :     2.665470  s :     2.665470
      pz      :     0.998584  p :     2.799080
      px      :     0.865266
      py      :     0.935229
      dz2     :     0.101977  d :     0.678548
      dxz     :     0.122674
      dyz     :     0.115051
      dx2y2   :     0.172281
      dxy     :     0.166565
      f0      :     0.008129  f :     0.085377
      f+1     :     0.008077
      f-1     :     0.009822
      f+2     :     0.013093
      f-2     :     0.011384
      f+3     :     0.016790
      f-3     :     0.018081
  6 C s       :     2.773795  s :     2.773795
      pz      :     1.006099  p :     3.003586
      px      :     1.011003
      py      :     0.986484
      dz2     :     0.062707  d :     0.336429
      dxz     :     0.065548
      dyz     :     0.091311
      dx2y2   :     0.064298
      dxy     :     0.052566
      f0      :     0.007746  f :     0.040698
      f+1     :     0.005952
      f-1     :     0.008570
      f+2     :     0.002257
      f-2     :     0.007706
      f+3     :     0.004207
      f-3     :     0.004259
  7 C s       :     2.724610  s :     2.724610
      pz      :     0.900969  p :     2.790310
      px      :     0.918356
      py      :     0.970985
      dz2     :     0.167886  d :     0.653556
      dxz     :     0.167984
      dyz     :     0.143255
      dx2y2   :     0.072125
      dxy     :     0.102306
      f0      :     0.017683  f :     0.092337
      f+1     :     0.018837
      f-1     :     0.013821
      f+2     :     0.016172
      f-2     :     0.011643
      f+3     :     0.007330
      f-3     :     0.006850
  8 O s       :     3.344831  s :     3.344831
      pz      :     1.594530  p :     4.602968
      px      :     1.529496
      py      :     1.478941
      dz2     :     0.013277  d :     0.069988
      dxz     :     0.018828
      dyz     :     0.011372
      dx2y2   :     0.012288
      dxy     :     0.014224
      f0      :     0.000593  f :     0.004462
      f+1     :     0.000737
      f-1     :     0.000298
      f+2     :     0.000912
      f-2     :     0.000943
      f+3     :     0.000654
      f-3     :     0.000325
  9 H s       :     0.671833  s :     0.671833
      pz      :     0.047963  p :     0.157045
      px      :     0.083506
      py      :     0.025576
 10 H s       :     0.812291  s :     0.812291
      pz      :     0.025762  p :     0.059673
      px      :     0.015522
      py      :     0.018389
 11 H s       :     0.811290  s :     0.811290
      pz      :     0.032895  p :     0.059133
      px      :     0.010921
      py      :     0.015317
 12 H s       :     0.733811  s :     0.733811
      pz      :     0.049740  p :     0.109373
      px      :     0.037829
      py      :     0.021803
 13 H s       :     0.805558  s :     0.805558
      pz      :     0.018369  p :     0.062220
      px      :     0.018205
      py      :     0.025646
 14 H s       :     0.804456  s :     0.804456
      pz      :     0.014357  p :     0.062362
      px      :     0.035377
      py      :     0.012628
 15 H s       :     0.807454  s :     0.807454
      pz      :     0.012330  p :     0.058343
      px      :     0.023896
      py      :     0.022117
 16 H s       :     0.655073  s :     0.655073
      pz      :     0.041761  p :     0.161112
      px      :     0.043008
      py      :     0.076342


                      *****************************
                      * MAYER POPULATION ANALYSIS *
                      *****************************

  NA   - Mulliken gross atomic population
  ZA   - Total nuclear charge
  QA   - Mulliken gross atomic charge
  VA   - Mayer's total valence
  BVA  - Mayer's bonded valence
  FA   - Mayer's free valence

  ATOM       NA         ZA         QA         VA         BVA        FA
  0 O      8.4257     8.0000    -0.4257     1.8180     1.8180     0.0000
  1 N      7.2280     7.0000    -0.2280     2.7511     2.7511    -0.0000
  2 C      5.8691     6.0000     0.1309     3.8944     3.8944    -0.0000
  3 C      6.0415     6.0000    -0.0415     3.9595     3.9595     0.0000
  4 N      7.3545     7.0000    -0.3545     2.8647     2.8647    -0.0000
  5 C      5.9532     6.0000     0.0468     3.8097     3.8097     0.0000
  6 C      6.1888     6.0000    -0.1888     3.8002     3.8002     0.0000
  7 C      5.9250     6.0000     0.0750     4.0075     4.0075    -0.0000
  8 O      8.5255     8.0000    -0.5255     1.8510     1.8510    -0.0000
  9 H      0.6500     1.0000     0.3500     0.8920     0.8920     0.0000
 10 H      0.8740     1.0000     0.1260     0.9643     0.9643     0.0000
 11 H      0.8835     1.0000     0.1165     0.9700     0.9700     0.0000
 12 H      0.7895     1.0000     0.2105     0.9455     0.9455    -0.0000
 13 H      0.8853     1.0000     0.1147     0.9877     0.9877     0.0000
 14 H      0.8737     1.0000     0.1263     0.9861     0.9861     0.0000
 15 H      0.8891     1.0000     0.1109     0.9688     0.9688    -0.0000
 16 H      0.6436     1.0000     0.3564     0.9006     0.9006     0.0000

  Mayer bond orders larger than 0.1
B(  0-O ,  1-N ) :   0.8567 B(  0-O ,  9-H ) :   0.8860 B(  1-N ,  2-C ) :   1.8449 
B(  2-C ,  3-C ) :   1.0120 B(  2-C ,  5-C ) :   0.9781 B(  3-C ,  4-N ) :   0.9977 
B(  3-C , 10-H ) :   0.9706 B(  3-C , 11-H ) :   0.9530 B(  4-N ,  5-C ) :   0.9886 
B(  4-N , 12-H ) :   0.9299 B(  5-C ,  6-C ) :   0.8997 B(  5-C ,  7-C ) :   0.9405 
B(  6-C ,  7-C ) :   0.9836 B(  6-C , 13-H ) :   0.9601 B(  6-C , 14-H ) :   0.9613 
B(  7-C ,  8-O ) :   1.0174 B(  7-C , 15-H ) :   0.9835 B(  8-O , 16-H ) :   0.8496 


-------
TIMINGS
-------

Total SCF time: 0 days 0 hours 2 min 4 sec 

Total time                  ....     124.398 sec
Sum of individual times     ....     128.171 sec  (103.0%)

Fock matrix formation       ....     123.040 sec  ( 98.9%)
Diagonalization             ....       0.585 sec  (  0.5%)
Density matrix formation    ....       0.039 sec  (  0.0%)
Population analysis         ....       0.146 sec  (  0.1%)
Initial guess               ....       2.647 sec  (  2.1%)
Orbital Transformation      ....       0.000 sec  (  0.0%)
Orbital Orthonormalization  ....       0.000 sec  (  0.0%)
DIIS solution               ....       0.159 sec  (  0.1%)
SOSCF solution              ....       0.304 sec  (  0.2%)

   <<< Auxbasis replaced with dsgdb9nsd_023059.AUXC.tmp (Dim=804) >>> 


------------------------------------------------------------------------------
                              ORCA MP2 CALCULATION
------------------------------------------------------------------------------

Freezing NCore=18 chemical core electrons

   <<< Use J-auxbasis for calculation of Separable RI-J derivative contributions dsgdb9nsd_023059.AUXJ.tmp (Dim=827) >>> 


---------------------
RI-MP2 ENERGY+DENSITY
---------------------
Dimension of the basis                    ...  327
Memory devoted to MP2                     ... 2000 MB   
Data format for buffers                   ... DOUBLE
Compression type for matrix containers    ... UNCOMPRESSED
Overall scaling of the MP2 energy         ...   1.000e+00 Eh
Calculating two index integrals           ... done (    0.017 sec)
Cholesky decomposition of V**-1           ... done (    0.104 sec)

-----------------
RI-TRANSFORMATION (AUX index driven)
-----------------

Dimension of the orbital-basis         ... 327
Dimension of the aux-basis             ... 804
Transformation of internal MOs         ...    0-  33
Transformation of internal/external MOs...    0-  33 to   34- 326
Number Format for Storage              ... Double (8 Byte)
Integral mode                          ... Direct

First Phase: integral generation and transformation of MO indices
  Aux angular momentum 0               ... done (    0.683 sec)
  Aux angular momentum 1               ... done (    0.947 sec)
  Aux angular momentum 2               ... done (    1.036 sec)
  Aux angular momentum 3               ... done (    0.834 sec)
  Aux angular momentum 4               ... done (    0.381 sec)
Closing buffer VIJ ( 0.00 GB; CompressionRatio= 1.94)
Closing buffer VIA ( 0.06 GB; CompressionRatio= 1.00)
  Phase 1 completed in     3.980 sec
Second Phase: sorting and transformation of aux index

IJ-Transformation
Memory available                       ... 1987 MB 
Max. # MO pairs treated in a batch     ... 34    
# of internal orbitals                 ... 34
# batches for internal orbitals        ... 1
Closing buffer IJV ( 0.00 GB; CompressionRatio= 1.00)
(ij|v) transformation done in     0.180 sec

IA-Transformation
Memory available                       ... 1987 MB 
Max. # MO pairs treated in a batch     ... 34    
# of internal orbitals                 ... 34
# batches for internal orbitals        ... 1
Closing buffer IAV ( 0.06 GB; CompressionRatio= 1.00)
(ia|v) transformation done in     1.348 sec

  Phase 2 completed in     1.548 sec
RI-Integral transformation completed in     5.528 sec
Opening buffers                              ... done
Frozen core precalculation                   ... done

Starting loop over batches of integrals:

Operator 0  - window                       ... (  9- 33)x( 34-326)
Operator 0  - Memory available             ...  2000 MB
Operator 0  - Memory needed per MO         ...   3.6 MB
Operator 0  - Number of orbitals per batch ... 25
Operator 0  - Number of batches            ... 1

OPERATOR  0   PASS   0:  MOs     9 ...   33
  Reading integrals       ... ok
  Internal MO  11
  Internal MO  14
  Internal MO  17
  Internal MO  20
  Internal MO  23
  Internal MO  26
  Internal MO  29
  Internal MO  32
Time spent in pair loops =    34.511 sec
Deleting buffer (Ka|jb)[aa] ...done

-----------------------------------------------
 RI-MP2 CORRELATION ENERGY:     -1.670693499 Eh
-----------------------------------------------


---------------------
MP2 DENSITY FORMATION
---------------------

Completing the external part of the density      ... done
Storing the unrelaxed density                    ... done

Calculating G(D)                                 ... done
Completing the Lagrangian                        ... done
Solving the Z-vector equations                   ... 

------------------------------------------------------------------------------
                           ORCA CP-SCF CALCULATION
------------------------------------------------------------------------------

Input orbitals are from        ... dsgdb9nsd_023059.gbw
Input Perturbation             ... dsgdb9nsd_023059.pin.tmp
Wavefunction output            ... dsgdb9nsd_023059.pout.tmp
Perturbation mode              ... Real perturbation
Solver                         ... POPLE
Max. number of iterations      ... 128
Convergence tolerance          ... 1.000e-08
Integral handling              ... Direct
Number of perturbations        ... 1
Number of operators            ... 1
Orbital ranges used for CP-SCF:
 Operator 0:  Orbitals   0... 33  to  34...326
Variables per vector in CP-SCF ... 9962
Number of vectors sought       ... 1
     CP-SCF ITERATION   0: 
     CP-SCF ITERATION   1:      0.001995911
     CP-SCF ITERATION   2:      0.000310487
     CP-SCF ITERATION   3:      0.000038913
     CP-SCF ITERATION   4:      0.000004493
     CP-SCF ITERATION   5:      0.000001139
     CP-SCF ITERATION   6:      0.000000095
     CP-SCF ITERATION   7:      0.000000010
done
Finalizing the relaxed density                   ... done
Transforming P to the AO basis                   ... done
Storing the relaxed density                      ... done

                *********************************************
                * UNRELAXED MP2 DENSITY POPULATION ANALYSIS *
                *********************************************

------------------------------------------------------------------------------
                           ORCA POPULATION ANALYSIS
------------------------------------------------------------------------------
Input electron density              ... dsgdb9nsd_023059.pmp2ur
BaseName (.gbw .S,...)              ... dsgdb9nsd_023059

                    ********************************
                    * MULLIKEN POPULATION ANALYSIS *
                    ********************************

-----------------------
MULLIKEN ATOMIC CHARGES
-----------------------
   0 O :   -0.415233
   1 N :   -0.219174
   2 C :    0.119889
   3 C :   -0.056343
   4 N :   -0.344653
   5 C :    0.039581
   6 C :   -0.196248
   7 C :    0.060071
   8 O :   -0.511671
   9 H :    0.347622
  10 H :    0.129210
  11 H :    0.119947
  12 H :    0.211519
  13 H :    0.118062
  14 H :    0.129756
  15 H :    0.114628
  16 H :    0.353037
Sum of atomic charges:    0.0000000

--------------------------------
MULLIKEN REDUCED ORBITAL CHARGES
--------------------------------
  0 O s       :     3.813322  s :     3.813322
      pz      :     1.881717  p :     4.530783
      px      :     1.480876
      py      :     1.168190
      dz2     :     0.010480  d :     0.066055
      dxz     :     0.008464
      dyz     :     0.010898
      dx2y2   :     0.024985
      dxy     :     0.011228
      f0      :     0.000672  f :     0.005073
      f+1     :     0.000646
      f-1     :     0.000891
      f+2     :     0.000669
      f-2     :     0.000412
      f+3     :     0.000830
      f-3     :     0.000953
  1 N s       :     3.639345  s :     3.639345
      pz      :     1.218474  p :     3.454785
      px      :     1.372751
      py      :     0.863560
      dz2     :     0.014242  d :     0.115571
      dxz     :     0.019911
      dyz     :     0.024764
      dx2y2   :     0.033146
      dxy     :     0.023508
      f0      :     0.001149  f :     0.009474
      f+1     :     0.000948
      f-1     :     0.001201
      f+2     :     0.001491
      f-2     :     0.000865
      f+3     :     0.001818
      f-3     :     0.002001
  2 C s       :     3.118869  s :     3.118869
      pz      :     0.814928  p :     2.567681
      px      :     0.815908
      py      :     0.936845
      dz2     :     0.016145  d :     0.172990
      dxz     :     0.039139
      dyz     :     0.023785
      dx2y2   :     0.057288
      dxy     :     0.036633
      f0      :     0.002194  f :     0.020571
      f+1     :     0.002912
      f-1     :     0.001553
      f+2     :     0.002553
      f-2     :     0.002472
      f+3     :     0.005053
      f-3     :     0.003833
  3 C s       :     3.174998  s :     3.174998
      pz      :     1.047265  p :     2.739724
      px      :     0.874326
      py      :     0.818133
      dz2     :     0.015089  d :     0.129037
      dxz     :     0.018847
      dyz     :     0.039494
      dx2y2   :     0.029395
      dxy     :     0.026212
      f0      :     0.001495  f :     0.012583
      f+1     :     0.001079
      f-1     :     0.002115
      f+2     :     0.001671
      f-2     :     0.001480
      f+3     :     0.002229
      f-3     :     0.002514
  4 N s       :     3.472928  s :     3.472928
      pz      :     1.546615  p :     3.769639
      px      :     1.096726
      py      :     1.126298
      dz2     :     0.014721  d :     0.095310
      dxz     :     0.024015
      dyz     :     0.013938
      dx2y2   :     0.024027
      dxy     :     0.018609
      f0      :     0.000855  f :     0.006776
      f+1     :     0.000989
      f-1     :     0.000861
      f+2     :     0.001020
      f-2     :     0.000842
      f+3     :     0.001144
      f-3     :     0.001065
  5 C s       :     3.169709  s :     3.169709
      pz      :     0.995641  p :     2.613422
      px      :     0.787481
      py      :     0.830299
      dz2     :     0.026729  d :     0.157317
      dxz     :     0.035790
      dyz     :     0.027730
      dx2y2   :     0.030220
      dxy     :     0.036848
      f0      :     0.002185  f :     0.019971
      f+1     :     0.002076
      f-1     :     0.002697
      f+2     :     0.002923
      f-2     :     0.002551
      f+3     :     0.003823
      f-3     :     0.003717
  6 C s       :     3.189607  s :     3.189607
      pz      :     0.959414  p :     2.899459
      px      :     0.990218
      py      :     0.949827
      dz2     :     0.022622  d :     0.095662
      dxz     :     0.015591
      dyz     :     0.021486
      dx2y2   :     0.018794
      dxy     :     0.017168
      f0      :     0.002126  f :     0.011521
      f+1     :     0.001508
      f-1     :     0.001934
      f+2     :     0.001166
      f-2     :     0.001915
      f+3     :     0.001639
      f-3     :     0.001234
  7 C s       :     3.180744  s :     3.180744
      pz      :     0.747289  p :     2.572343
      px      :     0.866163
      py      :     0.958891
      dz2     :     0.042072  d :     0.168195
      dxz     :     0.032694
      dyz     :     0.038325
      dx2y2   :     0.022814
      dxy     :     0.032290
      f0      :     0.003576  f :     0.018646
      f+1     :     0.003492
      f-1     :     0.002619
      f+2     :     0.002882
      f-2     :     0.002941
      f+3     :     0.001591
      f-3     :     0.001544
  8 O s       :     3.782344  s :     3.782344
      pz      :     1.594690  p :     4.662885
      px      :     1.544443
      py      :     1.523752
      dz2     :     0.011536  d :     0.061876
      dxz     :     0.016385
      dyz     :     0.012396
      dx2y2   :     0.011425
      dxy     :     0.010135
      f0      :     0.000561  f :     0.004566
      f+1     :     0.000706
      f-1     :     0.000464
      f+2     :     0.000701
      f-2     :     0.000751
      f+3     :     0.000825
      f-3     :     0.000557
  9 H s       :     0.606293  s :     0.606293
      pz      :     0.016648  p :     0.046085
      px      :     0.019751
      py      :     0.009685
 10 H s       :     0.845963  s :     0.845963
      pz      :     0.010030  p :     0.024827
      px      :     0.006867
      py      :     0.007930
 11 H s       :     0.854584  s :     0.854584
      pz      :     0.013731  p :     0.025469
      px      :     0.004616
      py      :     0.007122
 12 H s       :     0.748886  s :     0.748886
      pz      :     0.014940  p :     0.039595
      px      :     0.016357
      py      :     0.008298
 13 H s       :     0.855540  s :     0.855540
      pz      :     0.008018  p :     0.026398
      px      :     0.006964
      py      :     0.011416
 14 H s       :     0.844001  s :     0.844001
      pz      :     0.006001  p :     0.026244
      px      :     0.015351
      py      :     0.004891
 15 H s       :     0.859317  s :     0.859317
      pz      :     0.005946  p :     0.026055
      px      :     0.010480
      py      :     0.009629
 16 H s       :     0.597839  s :     0.597839
      pz      :     0.012680  p :     0.049125
      px      :     0.014935
      py      :     0.021509


                     *******************************
                     * LOEWDIN POPULATION ANALYSIS *
                     *******************************

----------------------
LOEWDIN ATOMIC CHARGES
----------------------
   0 O :   -0.096572
   1 N :   -0.020410
   2 C :   -0.208612
   3 C :   -0.185080
   4 N :    0.007806
   5 C :   -0.230480
   6 C :   -0.160513
   7 C :   -0.267870
   8 O :   -0.013388
   9 H :    0.169766
  10 H :    0.129687
  11 H :    0.131322
  12 H :    0.157343
  13 H :    0.134186
  14 H :    0.135138
  15 H :    0.135952
  16 H :    0.181726

-------------------------------
LOEWDIN REDUCED ORBITAL CHARGES
-------------------------------
  0 O s       :     3.428555  s :     3.428555
      pz      :     1.815192  p :     4.540194
      px      :     1.479888
      py      :     1.245114
      dz2     :     0.016595  d :     0.118287
      dxz     :     0.008274
      dyz     :     0.021742
      dx2y2   :     0.043352
      dxy     :     0.028323
      f0      :     0.000981  f :     0.009536
      f+1     :     0.000700
      f-1     :     0.001396
      f+2     :     0.001377
      f-2     :     0.000440
      f+3     :     0.002563
      f-3     :     0.002079
  1 N s       :     3.145082  s :     3.145082
      pz      :     1.145523  p :     3.522789
      px      :     1.434801
      py      :     0.942465
      dz2     :     0.033596  d :     0.318519
      dxz     :     0.029563
      dyz     :     0.067669
      dx2y2   :     0.111279
      dxy     :     0.076411
      f0      :     0.002882  f :     0.034021
      f+1     :     0.002042
      f-1     :     0.003873
      f+2     :     0.006225
      f-2     :     0.001828
      f+3     :     0.008639
      f-3     :     0.008531
  2 C s       :     2.731901  s :     2.731901
      pz      :     0.765362  p :     2.729142
      px      :     1.000692
      py      :     0.963089
      dz2     :     0.062498  d :     0.661738
      dxz     :     0.128882
      dyz     :     0.078083
      dx2y2   :     0.219254
      dxy     :     0.173020
      f0      :     0.006827  f :     0.085830
      f+1     :     0.009709
      f-1     :     0.005104
      f+2     :     0.012827
      f-2     :     0.009304
      f+3     :     0.025437
      f-3     :     0.016620
  3 C s       :     2.786878  s :     2.786878
      pz      :     1.035840  p :     2.880233
      px      :     0.955555
      py      :     0.888838
      dz2     :     0.055712  d :     0.457991
      dxz     :     0.056209
      dyz     :     0.135948
      dx2y2   :     0.105330
      dxy     :     0.104791
      f0      :     0.006324  f :     0.059979
      f+1     :     0.004620
      f-1     :     0.007091
      f+2     :     0.007421
      f-2     :     0.006899
      f+3     :     0.012718
      f-3     :     0.014906
  4 N s       :     3.047777  s :     3.047777
      pz      :     1.464638  p :     3.706614
      px      :     1.109861
      py      :     1.132116
      dz2     :     0.024545  d :     0.218369
      dxz     :     0.053570
      dyz     :     0.029295
      dx2y2   :     0.062693
      dxy     :     0.048266
      f0      :     0.001521  f :     0.019434
      f+1     :     0.002695
      f-1     :     0.001554
      f+2     :     0.003298
      f-2     :     0.002108
      f+3     :     0.004630
      f-3     :     0.003628
  5 C s       :     2.665054  s :     2.665054
      pz      :     0.988043  p :     2.773578
      px      :     0.859478
      py      :     0.926057
      dz2     :     0.106440  d :     0.699154
      dxz     :     0.126748
      dyz     :     0.121174
      dx2y2   :     0.175355
      dxy     :     0.169436
      f0      :     0.009057  f :     0.092693
      f+1     :     0.008910
      f-1     :     0.010924
      f+2     :     0.014112
      f-2     :     0.012448
      f+3     :     0.018045
      f-3     :     0.019198
  6 C s       :     2.772638  s :     2.772638
      pz      :     0.996906  p :     2.977833
      px      :     1.002930
      py      :     0.977997
      dz2     :     0.069312  d :     0.363527
      dxz     :     0.070591
      dyz     :     0.095386
      dx2y2   :     0.069674
      dxy     :     0.058564
      f0      :     0.008823  f :     0.046515
      f+1     :     0.006800
      f-1     :     0.009272
      f+2     :     0.002997
      f-2     :     0.008364
      f+3     :     0.005221
      f-3     :     0.005039
  7 C s       :     2.724547  s :     2.724547
      pz      :     0.895770  p :     2.773109
      px      :     0.913634
      py      :     0.963705
      dz2     :     0.170637  d :     0.671672
      dxz     :     0.171302
      dyz     :     0.146784
      dx2y2   :     0.076934
      dxy     :     0.106014
      f0      :     0.018601  f :     0.098542
      f+1     :     0.019878
      f-1     :     0.014734
      f+2     :     0.017056
      f-2     :     0.012802
      f+3     :     0.007935
      f-3     :     0.007535
  8 O s       :     3.341712  s :     3.341712
      pz      :     1.580427  p :     4.564684
      px      :     1.516757
      py      :     1.467500
      dz2     :     0.018914  d :     0.099515
      dxz     :     0.025147
      dyz     :     0.017137
      dx2y2   :     0.018133
      dxy     :     0.020184
      f0      :     0.001016  f :     0.007477
      f+1     :     0.001193
      f-1     :     0.000706
      f+2     :     0.001360
      f-2     :     0.001387
      f+3     :     0.001089
      f-3     :     0.000728
  9 H s       :     0.670011  s :     0.670011
      pz      :     0.048682  p :     0.160222
      px      :     0.085083
      py      :     0.026457
 10 H s       :     0.805419  s :     0.805419
      pz      :     0.027613  p :     0.064894
      px      :     0.017129
      py      :     0.020152
 11 H s       :     0.804416  s :     0.804416
      pz      :     0.035025  p :     0.064262
      px      :     0.012248
      py      :     0.016989
 12 H s       :     0.728827  s :     0.728827
      pz      :     0.051360  p :     0.113831
      px      :     0.039563
      py      :     0.022907
 13 H s       :     0.798517  s :     0.798517
      pz      :     0.019941  p :     0.067297
      px      :     0.019790
      py      :     0.027566
 14 H s       :     0.797410  s :     0.797410
      pz      :     0.015742  p :     0.067452
      px      :     0.037769
      py      :     0.013941
 15 H s       :     0.800447  s :     0.800447
      pz      :     0.013870  p :     0.063601
      px      :     0.025900
      py      :     0.023831
 16 H s       :     0.653788  s :     0.653788
      pz      :     0.042798  p :     0.164486
      px      :     0.043942
      py      :     0.077746


                      *****************************
                      * MAYER POPULATION ANALYSIS *
                      *****************************

  NA   - Mulliken gross atomic population
  ZA   - Total nuclear charge
  QA   - Mulliken gross atomic charge
  VA   - Mayer's total valence
  BVA  - Mayer's bonded valence
  FA   - Mayer's free valence

  ATOM       NA         ZA         QA         VA         BVA        FA
  0 O      8.4152     8.0000    -0.4152     2.1107     1.6867     0.4240
  1 N      7.2192     7.0000    -0.2192     2.9667     2.5041     0.4626
  2 C      5.8801     6.0000     0.1199     3.9823     3.6024     0.3799
  3 C      6.0563     6.0000    -0.0563     4.0623     3.7414     0.3209
  4 N      7.3447     7.0000    -0.3447     3.0836     2.6746     0.4090
  5 C      5.9604     6.0000     0.0396     3.9009     3.5323     0.3686
  6 C      6.1962     6.0000    -0.1962     3.9110     3.5773     0.3337
  7 C      5.9399     6.0000     0.0601     4.0925     3.7553     0.3373
  8 O      8.5117     8.0000    -0.5117     2.1450     1.7421     0.4029
  9 H      0.6524     1.0000     0.3476     0.8980     0.8488     0.0492
 10 H      0.8708     1.0000     0.1292     0.9725     0.9223     0.0502
 11 H      0.8801     1.0000     0.1199     0.9779     0.9283     0.0496
 12 H      0.7885     1.0000     0.2115     0.9524     0.8994     0.0529
 13 H      0.8819     1.0000     0.1181     0.9962     0.9456     0.0506
 14 H      0.8702     1.0000     0.1298     0.9939     0.9441     0.0498
 15 H      0.8854     1.0000     0.1146     0.9771     0.9278     0.0493
 16 H      0.6470     1.0000     0.3530     0.9077     0.8572     0.0504

  Mayer bond orders larger than 0.1
B(  0-O ,  1-N ) :   0.7777 B(  0-O ,  9-H ) :   0.8440 B(  1-N ,  2-C ) :   1.6910 
B(  2-C ,  3-C ) :   0.9488 B(  2-C ,  5-C ) :   0.9175 B(  3-C ,  4-N ) :   0.9265 
B(  3-C , 10-H ) :   0.9318 B(  3-C , 11-H ) :   0.9144 B(  4-N ,  5-C ) :   0.9195 
B(  4-N , 12-H ) :   0.8863 B(  5-C ,  6-C ) :   0.8324 B(  5-C ,  7-C ) :   0.8701 
B(  6-C ,  7-C ) :   0.9141 B(  6-C , 13-H ) :   0.9217 B(  6-C , 14-H ) :   0.9224 
B(  7-C ,  8-O ) :   0.9553 B(  7-C , 15-H ) :   0.9451 B(  8-O , 16-H ) :   0.8085 



                *******************************************
                * RELAXED MP2 DENSITY POPULATION ANALYSIS *
                *******************************************

------------------------------------------------------------------------------
                           ORCA POPULATION ANALYSIS
------------------------------------------------------------------------------
Input electron density              ... dsgdb9nsd_023059.pmp2re
BaseName (.gbw .S,...)              ... dsgdb9nsd_023059

                    ********************************
                    * MULLIKEN POPULATION ANALYSIS *
                    ********************************

-----------------------
MULLIKEN ATOMIC CHARGES
-----------------------
   0 O :   -0.367239
   1 N :   -0.152773
   2 C :    0.057348
   3 C :   -0.124496
   4 N :   -0.302613
   5 C :   -0.014994
   6 C :   -0.213113
   7 C :    0.004026
   8 O :   -0.451338
   9 H :    0.339799
  10 H :    0.140113
  11 H :    0.133938
  12 H :    0.214663
  13 H :    0.130285
  14 H :    0.142801
  15 H :    0.128572
  16 H :    0.335020
Sum of atomic charges:    0.0000000

--------------------------------
MULLIKEN REDUCED ORBITAL CHARGES
--------------------------------
  0 O s       :     3.822522  s :     3.822522
      pz      :     1.854067  p :     4.475844
      px      :     1.457684
      py      :     1.164093
      dz2     :     0.009989  d :     0.063904
      dxz     :     0.008435
      dyz     :     0.011480
      dx2y2   :     0.022075
      dxy     :     0.011926
      f0      :     0.000677  f :     0.004969
      f+1     :     0.000635
      f-1     :     0.000868
      f+2     :     0.000660
      f-2     :     0.000409
      f+3     :     0.000812
      f-3     :     0.000908
  1 N s       :     3.621450  s :     3.621450
      pz      :     1.184932  p :     3.411023
      px      :     1.369844
      py      :     0.856247
      dz2     :     0.013313  d :     0.111138
      dxz     :     0.017970
      dyz     :     0.025986
      dx2y2   :     0.029940
      dxy     :     0.023929
      f0      :     0.001113  f :     0.009163
      f+1     :     0.000892
      f-1     :     0.001146
      f+2     :     0.001470
      f-2     :     0.000830
      f+3     :     0.001834
      f-3     :     0.001878
  2 C s       :     3.121733  s :     3.121733
      pz      :     0.893512  p :     2.645008
      px      :     0.832848
      py      :     0.918648
      dz2     :     0.014131  d :     0.156369
      dxz     :     0.032207
      dyz     :     0.023721
      dx2y2   :     0.051971
      dxy     :     0.034340
      f0      :     0.002157  f :     0.019542
      f+1     :     0.002783
      f-1     :     0.001465
      f+2     :     0.002459
      f-2     :     0.002334
      f+3     :     0.004874
      f-3     :     0.003471
  3 C s       :     3.192105  s :     3.192105
      pz      :     1.069063  p :     2.799666
      px      :     0.904131
      py      :     0.826473
      dz2     :     0.013024  d :     0.120738
      dxz     :     0.019208
      dyz     :     0.038422
      dx2y2   :     0.024884
      dxy     :     0.025201
      f0      :     0.001445  f :     0.011986
      f+1     :     0.001053
      f-1     :     0.001962
      f+2     :     0.001635
      f-2     :     0.001441
      f+3     :     0.002068
      f-3     :     0.002383
  4 N s       :     3.477959  s :     3.477959
      pz      :     1.513820  p :     3.728065
      px      :     1.096024
      py      :     1.118220
      dz2     :     0.014345  d :     0.089997
      dxz     :     0.022299
      dyz     :     0.014573
      dx2y2   :     0.020949
      dxy     :     0.017830
      f0      :     0.000845  f :     0.006593
      f+1     :     0.000974
      f-1     :     0.000828
      f+2     :     0.000988
      f-2     :     0.000826
      f+3     :     0.001119
      f-3     :     0.001012
  5 C s       :     3.206646  s :     3.206646
      pz      :     0.997214  p :     2.636656
      px      :     0.817881
      py      :     0.821560
      dz2     :     0.024012  d :     0.152483
      dxz     :     0.037713
      dyz     :     0.028950
      dx2y2   :     0.029383
      dxy     :     0.032426
      f0      :     0.002179  f :     0.019209
      f+1     :     0.001960
      f-1     :     0.002505
      f+2     :     0.002920
      f-2     :     0.002504
      f+3     :     0.003457
      f-3     :     0.003683
  6 C s       :     3.191234  s :     3.191234
      pz      :     0.966021  p :     2.926949
      px      :     0.999697
      py      :     0.961231
      dz2     :     0.017541  d :     0.083949
      dxz     :     0.015150
      dyz     :     0.020343
      dx2y2   :     0.016623
      dxy     :     0.014291
      f0      :     0.001920  f :     0.010981
      f+1     :     0.001472
      f-1     :     0.001882
      f+2     :     0.001187
      f-2     :     0.001823
      f+3     :     0.001453
      f-3     :     0.001245
  7 C s       :     3.196796  s :     3.196796
      pz      :     0.761811  p :     2.621605
      px      :     0.880031
      py      :     0.979763
      dz2     :     0.041300  d :     0.159692
      dxz     :     0.031208
      dyz     :     0.035801
      dx2y2   :     0.023006
      dxy     :     0.028377
      f0      :     0.003365  f :     0.017881
      f+1     :     0.003446
      f-1     :     0.002526
      f+2     :     0.002801
      f-2     :     0.002719
      f+3     :     0.001526
      f-3     :     0.001499
  8 O s       :     3.777910  s :     3.777910
      pz      :     1.578020  p :     4.609366
      px      :     1.528324
      py      :     1.503021
      dz2     :     0.011604  d :     0.059569
      dxz     :     0.014955
      dyz     :     0.012004
      dx2y2   :     0.010942
      dxy     :     0.010065
      f0      :     0.000556  f :     0.004493
      f+1     :     0.000691
      f-1     :     0.000462
      f+2     :     0.000682
      f-2     :     0.000739
      f+3     :     0.000809
      f-3     :     0.000554
  9 H s       :     0.613849  s :     0.613849
      pz      :     0.017432  p :     0.046352
      px      :     0.018966
      py      :     0.009953
 10 H s       :     0.836203  s :     0.836203
      pz      :     0.009378  p :     0.023684
      px      :     0.006760
      py      :     0.007547
 11 H s       :     0.841835  s :     0.841835
      pz      :     0.012481  p :     0.024227
      px      :     0.004879
      py      :     0.006866
 12 H s       :     0.746599  s :     0.746599
      pz      :     0.014512  p :     0.038739
      px      :     0.015694
      py      :     0.008533
 13 H s       :     0.844291  s :     0.844291
      pz      :     0.007891  p :     0.025424
      px      :     0.006736
      py      :     0.010798
 14 H s       :     0.831941  s :     0.831941
      pz      :     0.006118  p :     0.025258
      px      :     0.014008
      py      :     0.005132
 15 H s       :     0.846575  s :     0.846575
      pz      :     0.005772  p :     0.024853
      px      :     0.009805
      py      :     0.009276
 16 H s       :     0.615308  s :     0.615308
      pz      :     0.013384  p :     0.049671
      px      :     0.015308
      py      :     0.020980


                     *******************************
                     * LOEWDIN POPULATION ANALYSIS *
                     *******************************

----------------------
LOEWDIN ATOMIC CHARGES
----------------------
   0 O :   -0.069427
   1 N :    0.004265
   2 C :   -0.247428
   3 C :   -0.213033
   4 N :    0.020384
   5 C :   -0.246951
   6 C :   -0.179198
   7 C :   -0.295218
   8 O :    0.009791
   9 H :    0.172263
  10 H :    0.135513
  11 H :    0.137640
  12 H :    0.163093
  13 H :    0.142283
  14 H :    0.142649
  15 H :    0.143621
  16 H :    0.179753

-------------------------------
LOEWDIN REDUCED ORBITAL CHARGES
-------------------------------
  0 O s       :     3.435951  s :     3.435951
      pz      :     1.788869  p :     4.506829
      px      :     1.476614
      py      :     1.241346
      dz2     :     0.016699  d :     0.117067
      dxz     :     0.008311
      dyz     :     0.021344
      dx2y2   :     0.041869
      dxy     :     0.028844
      f0      :     0.000969  f :     0.009580
      f+1     :     0.000703
      f-1     :     0.001430
      f+2     :     0.001358
      f-2     :     0.000440
      f+3     :     0.002530
      f-3     :     0.002150
  1 N s       :     3.152023  s :     3.152023
      pz      :     1.120860  p :     3.489557
      px      :     1.424880
      py      :     0.943817
      dz2     :     0.033749  d :     0.320131
      dxz     :     0.030186
      dyz     :     0.069510
      dx2y2   :     0.110553
      dxy     :     0.076133
      f0      :     0.002692  f :     0.034023
      f+1     :     0.002135
      f-1     :     0.003920
      f+2     :     0.006202
      f-2     :     0.001920
      f+3     :     0.008534
      f-3     :     0.008622
  2 C s       :     2.735438  s :     2.735438
      pz      :     0.824726  p :     2.778958
      px      :     0.996960
      py      :     0.957272
      dz2     :     0.060759  d :     0.649415
      dxz     :     0.121366
      dyz     :     0.077424
      dx2y2   :     0.217556
      dxy     :     0.172310
      f0      :     0.006659  f :     0.083617
      f+1     :     0.009493
      f-1     :     0.005107
      f+2     :     0.012571
      f-2     :     0.009101
      f+3     :     0.024670
      f-3     :     0.016016
  3 C s       :     2.793815  s :     2.793815
      pz      :     1.045813  p :     2.907797
      px      :     0.969835
      py      :     0.892149
      dz2     :     0.053850  d :     0.452213
      dxz     :     0.058776
      dyz     :     0.136089
      dx2y2   :     0.100290
      dxy     :     0.103209
      f0      :     0.006207  f :     0.059207
      f+1     :     0.004781
      f-1     :     0.006910
      f+2     :     0.007371
      f-2     :     0.006823
      f+3     :     0.012455
      f-3     :     0.014660
  4 N s       :     3.054192  s :     3.054192
      pz      :     1.449226  p :     3.690714
      px      :     1.109241
      py      :     1.132247
      dz2     :     0.024205  d :     0.215236
      dxz     :     0.052519
      dyz     :     0.030156
      dx2y2   :     0.060170
      dxy     :     0.048186
      f0      :     0.001536  f :     0.019475
      f+1     :     0.002676
      f-1     :     0.001556
      f+2     :     0.003312
      f-2     :     0.002113
      f+3     :     0.004657
      f-3     :     0.003625
  5 C s       :     2.672825  s :     2.672825
      pz      :     0.988055  p :     2.778769
      px      :     0.865130
      py      :     0.925584
      dz2     :     0.104527  d :     0.703998
      dxz     :     0.129545
      dyz     :     0.126832
      dx2y2   :     0.174571
      dxy     :     0.168522
      f0      :     0.008942  f :     0.091359
      f+1     :     0.008527
      f-1     :     0.010620
      f+2     :     0.014476
      f-2     :     0.012531
      f+3     :     0.017291
      f-3     :     0.018971
  6 C s       :     2.780379  s :     2.780379
      pz      :     1.002973  p :     3.000466
      px      :     1.010859
      py      :     0.986635
      dz2     :     0.065261  d :     0.352527
      dxz     :     0.069548
      dyz     :     0.094013
      dx2y2   :     0.068370
      dxy     :     0.055336
      f0      :     0.008695  f :     0.045825
      f+1     :     0.006766
      f-1     :     0.009090
      f+2     :     0.003061
      f-2     :     0.008039
      f+3     :     0.005065
      f-3     :     0.005109
  7 C s       :     2.732103  s :     2.732103
      pz      :     0.899817  p :     2.796165
      px      :     0.922164
      py      :     0.974184
      dz2     :     0.172685  d :     0.670789
      dxz     :     0.171506
      dyz     :     0.146598
      dx2y2   :     0.077716
      dxy     :     0.102284
      f0      :     0.017814  f :     0.096161
      f+1     :     0.019790
      f-1     :     0.014172
      f+2     :     0.016931
      f-2     :     0.012242
      f+3     :     0.007726
      f-3     :     0.007486
  8 O s       :     3.344952  s :     3.344952
      pz      :     1.568809  p :     4.538695
      px      :     1.508851
      py      :     1.461035
      dz2     :     0.019095  d :     0.098991
      dxz     :     0.024358
      dyz     :     0.017114
      dx2y2   :     0.018193
      dxy     :     0.020231
      f0      :     0.001027  f :     0.007572
      f+1     :     0.001211
      f-1     :     0.000708
      f+2     :     0.001378
      f-2     :     0.001403
      f+3     :     0.001113
      f-3     :     0.000731
  9 H s       :     0.667810  s :     0.667810
      pz      :     0.048960  p :     0.159926
      px      :     0.084640
      py      :     0.026326
 10 H s       :     0.798671  s :     0.798671
      pz      :     0.027623  p :     0.065816
      px      :     0.017714
      py      :     0.020479
 11 H s       :     0.797465  s :     0.797465
      pz      :     0.034655  p :     0.064895
      px      :     0.013042
      py      :     0.017199
 12 H s       :     0.722426  s :     0.722426
      pz      :     0.051912  p :     0.114482
      px      :     0.039330
      py      :     0.023240
 13 H s       :     0.789428  s :     0.789428
      pz      :     0.020483  p :     0.068289
      px      :     0.020019
      py      :     0.027787
 14 H s       :     0.789041  s :     0.789041
      pz      :     0.016289  p :     0.068310
      px      :     0.037440
      py      :     0.014581
 15 H s       :     0.792161  s :     0.792161
      pz      :     0.014159  p :     0.064218
      px      :     0.025930
      py      :     0.024128
 16 H s       :     0.655281  s :     0.655281
      pz      :     0.043661  p :     0.164966
      px      :     0.044035
      py      :     0.077270


                      *****************************
                      * MAYER POPULATION ANALYSIS *
                      *****************************

  NA   - Mulliken gross atomic population
  ZA   - Total nuclear charge
  QA   - Mulliken gross atomic charge
  VA   - Mayer's total valence
  BVA  - Mayer's bonded valence
  FA   - Mayer's free valence

  ATOM       NA         ZA         QA         VA         BVA        FA
  0 O      8.3672     8.0000    -0.3672     2.1902     1.7796     0.4106
  1 N      7.1528     7.0000    -0.1528     3.0929     2.6488     0.4442
  2 C      5.9427     6.0000     0.0573     4.0867     3.7279     0.3588
  3 C      6.1245     6.0000    -0.1245     4.0760     3.7598     0.3162
  4 N      7.3026     7.0000    -0.3026     3.1806     2.7797     0.4010
  5 C      6.0150     6.0000    -0.0150     3.9897     3.6321     0.3576
  6 C      6.2131     6.0000    -0.2131     3.8263     3.4957     0.3306
  7 C      5.9960     6.0000     0.0040     4.1188     3.7891     0.3296
  8 O      8.4513     8.0000    -0.4513     2.2245     1.8301     0.3944
  9 H      0.6602     1.0000     0.3398     0.9029     0.8538     0.0490
 10 H      0.8599     1.0000     0.1401     0.9628     0.9137     0.0491
 11 H      0.8661     1.0000     0.1339     0.9629     0.9142     0.0488
 12 H      0.7853     1.0000     0.2147     0.9452     0.8927     0.0525
 13 H      0.8697     1.0000     0.1303     0.9953     0.9462     0.0490
 14 H      0.8572     1.0000     0.1428     0.9925     0.9438     0.0487
 15 H      0.8714     1.0000     0.1286     0.9689     0.9207     0.0482
 16 H      0.6650     1.0000     0.3350     0.9285     0.8785     0.0500

  Mayer bond orders larger than 0.1
B(  0-O ,  1-N ) :   0.8130 B(  0-O ,  9-H ) :   0.8419 B(  1-N ,  2-C ) :   1.7407 
B(  2-C ,  3-C ) :   0.9543 B(  2-C ,  5-C ) :   0.9509 B(  3-C ,  4-N ) :   0.9631 
B(  3-C , 10-H ) :   0.9145 B(  3-C , 11-H ) :   0.8959 B(  4-N ,  5-C ) :   0.9794 
B(  4-N , 12-H ) :   0.8743 B(  5-C ,  6-C ) :   0.8066 B(  5-C ,  7-C ) :   0.8679 
B(  6-C ,  7-C ) :   0.8784 B(  6-C , 13-H ) :   0.9032 B(  6-C , 14-H ) :   0.9130 
B(  7-C ,  8-O ) :   1.0180 B(  7-C , 15-H ) :   0.9336 B(  8-O , 16-H ) :   0.8086 



-------
TIMINGS
-------

Total time                :  780.950 sec
Integral trafo            :    5.536 sec (  0.7%)
FC preparation            :    3.282 sec (  0.4%)
I/O of integrals          :    0.049 sec (  0.0%)
K(i,j) Operators          :    8.291 sec (  1.1%)
T(i,j) pair energies      :    0.753 sec (  0.1%)
V-calculation             :    0.017 sec (  0.0%)
V**(-1/2)                 :    0.104 sec (  0.0%)
Gamma(ia|P)               :    8.105 sec (  1.0%)
Gamma-Trafo               :    1.304 sec (  0.2%)
D(virtual)                :    3.079 sec (  0.4%)
D(internal)               :    2.837 sec (  0.4%)
W(virtual)                :    0.000 sec (  0.0%)
W(internal)               :    0.000 sec (  0.0%)
L(virtual)                :    9.647 sec (  1.2%)
L(internal)               :    0.179 sec (  0.0%)
G(D)                      :  105.526 sec ( 13.5%)
G(Z)                      :    0.000 sec (  0.0%)
Z-Vector Solution         :  631.582 sec ( 80.9%)
3-Index Derivative        :    0.000 sec (  0.0%)
2-Index Derivative        :    0.000 sec (  0.0%)
Separable Gradient (RIJ)  :    0.000 sec (  0.0%)
Separable Gradient (X)    :    0.000 sec (  0.0%)


---------------------------------------
MP2 TOTAL ENERGY:     -454.306933392 Eh
---------------------------------------

-------------------------   --------------------
FINAL SINGLE POINT ENERGY      -454.306933392381
-------------------------   --------------------


                            ***************************************
                            *     ORCA property calculations      *
                            ***************************************

                                    ---------------------
                                    Active property flags
                                    ---------------------
   (+) Dipole Moment


------------------------------------------------------------------------------
                       ORCA ELECTRIC PROPERTIES CALCULATION
------------------------------------------------------------------------------

Dipole Moment Calculation                       ... on
Quadrupole Moment Calculation                   ... off
Polarizability Calculation                      ... off
GBWName                                         ... dsgdb9nsd_023059.gbw
Electron density file                           ... dsgdb9nsd_023059.scfp.tmp

-------------
DIPOLE MOMENT
-------------
                                X             Y             Z
Electronic contribution:      1.80870       1.89331       0.86029
Nuclear contribution   :     -2.16620      -1.56907      -0.99274
                        -----------------------------------------
Total Dipole Moment    :     -0.35751       0.32424      -0.13245
                        -----------------------------------------
Magnitude (a.u.)       :      0.50048
Magnitude (Debye)      :      1.27212


                         *** MP2 UNRELAXED DENSITY ***

------------------------------------------------------------------------------
                       ORCA ELECTRIC PROPERTIES CALCULATION
------------------------------------------------------------------------------

Dipole Moment Calculation                       ... on
Quadrupole Moment Calculation                   ... off
Polarizability Calculation                      ... off
GBWName                                         ... dsgdb9nsd_023059.gbw
Electron density file                           ... dsgdb9nsd_023059.pmp2ur

-------------
DIPOLE MOMENT
-------------
                                X             Y             Z
Electronic contribution:      1.82707       1.90862       0.87389
Nuclear contribution   :     -2.16620      -1.56907      -0.99274
                        -----------------------------------------
Total Dipole Moment    :     -0.33913       0.33954      -0.11885
                        -----------------------------------------
Magnitude (a.u.)       :      0.49440
Magnitude (Debye)      :      1.25665


                           *** MP2 RELAXED DENSITY ***

------------------------------------------------------------------------------
                       ORCA ELECTRIC PROPERTIES CALCULATION
------------------------------------------------------------------------------

Dipole Moment Calculation                       ... on
Quadrupole Moment Calculation                   ... off
Polarizability Calculation                      ... off
GBWName                                         ... dsgdb9nsd_023059.gbw
Electron density file                           ... dsgdb9nsd_023059.pmp2re

-------------
DIPOLE MOMENT
-------------
                                X             Y             Z
Electronic contribution:      1.94905       2.01233       0.92703
Nuclear contribution   :     -2.16620      -1.56907      -0.99274
                        -----------------------------------------
Total Dipole Moment    :     -0.21716       0.44325      -0.06570
                        -----------------------------------------
Magnitude (a.u.)       :      0.49794
Magnitude (Debye)      :      1.26567


Timings for individual modules:

Sum of individual times         ...      908.705 sec (=  15.145 min)
GTO integral calculation        ...        0.492 sec (=   0.008 min)   0.1 %
SCF iterations                  ...      127.110 sec (=   2.118 min)  14.0 %
MP2 module                      ...      781.103 sec (=  13.018 min)  86.0 %
                             ****ORCA TERMINATED NORMALLY****
TOTAL RUN TIME: 0 days 0 hours 15 minutes 9 seconds 171 msec
