
                                 *****************
                                 * O   R   C   A *
                                 *****************

           --- An Ab Initio, DFT and Semiempirical electronic structure package ---

                  #######################################################
                  #                        -***-                        #
                  #  Department of molecular theory and spectroscopy    #
                  #              Directorship: Frank Neese              #
                  # Max Planck Institute for Chemical Energy Conversion #
                  #                  D-45470 Muelheim/Ruhr              #
                  #                       Germany                       #
                  #                                                     #
                  #                  All rights reserved                #
                  #                        -***-                        #
                  #######################################################


                         Program Version 3.0.3 - RELEASE   -


 With contributions from (in alphabetic order):
   Ute Becker             : Parallelization
   Dmytro Bykov           : SCF Hessian
   Dmitry Ganyushin       : Spin-Orbit,Spin-Spin,Magnetic field MRCI
   Andreas Hansen         : Spin unrestricted coupled pair/coupled cluster methods
   Dimitrios Liakos       : Extrapolation schemes; parallel MDCI
   Robert Izsak           : Overlap fitted RIJCOSX, COSX-SCS-MP3
   Christian Kollmar      : KDIIS, OOCD, Brueckner-CCSD(T), CCSD density
   Simone Kossmann        : Meta GGA functionals, TD-DFT gradient, OOMP2, MP2 Hessian
   Taras Petrenko         : DFT Hessian,TD-DFT gradient, ASA and ECA modules, normal mode analysis, Resonance Raman, ABS, FL, XAS/XES, NRVS
   Christoph Reimann      : Effective Core Potentials
   Michael Roemelt        : Restricted open shell CIS
   Christoph Riplinger    : Improved optimizer, TS searches, QM/MM, DLPNO-CCSD
   Barbara Sandhoefer     : DKH picture change effects
   Igor Schapiro          : Molecular dynamics
   Kantharuban Sivalingam : CASSCF convergence, NEVPT2
   Boris Wezisla          : Elementary symmetry handling
   Frank Wennmohs         : Technical directorship


 We gratefully acknowledge several colleagues who have allowed us to
 interface, adapt or use parts of their codes:
   Stefan Grimme, W. Hujo, H. Kruse, T. Risthaus : VdW corrections, initial TS optimization,
                                                   DFT functionals, gCP
   Ed Valeev                                     : LibInt (2-el integral package), F12 methods
   Garnet Chan, S. Sharma, R. Olivares           : DMRG
   Ulf Ekstrom                                   : XCFun DFT Library
   Mihaly Kallay                                 : mrcc  (arbitrary order and MRCC methods)
   Andreas Klamt, Michael Diedenhofen            : otool_cosmo (COSMO solvation model)
   Frank Weinhold                                : gennbo (NPA and NBO analysis)
   Christopher J. Cramer and Donald G. Truhlar   : smd solvation model


 Your calculation uses the libint2 library for the computation of 2-el integrals
 For citations please refer to: http://libint.valeyev.net

 This ORCA versions uses:
   CBLAS   interface :  Fast vector & matrix operations
   LAPACKE interface :  Fast linear algebra routines
   SCALAPACK package :  Parallel linear algebra routines


Your calculation utilizes the basis: Ahlrichs-TZV
Cite in your paper:
H - Kr: A. Schaefer, H. Horn and R. Ahlrichs, J. Chem. Phys. 97, 2571 (1992).

The def2-TZV basis will be loaded
Cite in your paper:
 	F. Weigend, R. Ahlrichs, Phys. Chem. Chem. Phys. 2005, 7, 3297.

================================================================================
                                        WARNINGS
                       Please study these warnings very carefully!
================================================================================
Now building the actual basis set


INFO   : the flag for use of LIBINT has been found!

================================================================================
                                       INPUT FILE
================================================================================
NAME = dsgdb9nsd_088570.inp
|  1> ! RI-MP2 RIJK def2-TZVP def2-TZVP/C def2-TZVP/JK TIGHTSCF
|  2> % maxcore 2000
|  3> % mp2 density relaxed end
|  4> *xyz 0 1
|  5>  C       -0.3025151913     1.4266390114    -0.1283449475 
|  6>  C       -0.0011550881    -0.0475352472     0.0103828150 
|  7>  C        1.3734551135    -0.5917098721    -0.2273406490 
|  8>  C        0.8122458061    -0.6129209388     1.1792529620 
|  9>  C        1.3917736777     0.2625079870     2.2113520279 
| 10>  N        2.1321087988     1.2845126583     2.0390694061 
| 11>  C        2.4218435261     1.8297429327     3.3710414843 
| 12>  C        1.7289098527     0.8501691662     4.3540354709 
| 13>  O        1.0687066784    -0.0974298476     3.4888660051 
| 14>  H        0.5325684185     2.0323788005     0.2299349403 
| 15>  H       -0.4870940116     1.6782274567    -1.1785341329 
| 16>  H       -1.1959382121     1.7032335823     0.4424923625 
| 17>  H       -0.8185975602    -0.7014448908    -0.2833884809 
| 18>  H        1.4911488157    -1.5423935813    -0.7354874721 
| 19>  H        2.1684925987     0.1260356625    -0.3970465289 
| 20>  H        0.4731116931    -1.5624131060     1.5760624781 
| 21>  H        3.5040518512     1.8856226155     3.5298836123 
| 22>  H        2.0309461356     2.8502252671     3.4543007002 
| 23>  H        2.4304692316     0.3031111383     4.9911225800 
| 24>  H        0.9727371556     1.3224932353     4.9871679966 
| 25> *
| 26> 
| 27>                          ****END OF INPUT****
================================================================================

                       ****************************
                       * Single Point Calculation *
                       ****************************

---------------------------------
CARTESIAN COORDINATES (ANGSTROEM)
---------------------------------
  C     -0.302515    1.426639   -0.128345
  C     -0.001155   -0.047535    0.010383
  C      1.373455   -0.591710   -0.227341
  C      0.812246   -0.612921    1.179253
  C      1.391774    0.262508    2.211352
  N      2.132109    1.284513    2.039069
  C      2.421844    1.829743    3.371041
  C      1.728910    0.850169    4.354035
  O      1.068707   -0.097430    3.488866
  H      0.532568    2.032379    0.229935
  H     -0.487094    1.678227   -1.178534
  H     -1.195938    1.703234    0.442492
  H     -0.818598   -0.701445   -0.283388
  H      1.491149   -1.542394   -0.735487
  H      2.168493    0.126036   -0.397047
  H      0.473112   -1.562413    1.576062
  H      3.504052    1.885623    3.529884
  H      2.030946    2.850225    3.454301
  H      2.430469    0.303111    4.991123
  H      0.972737    1.322493    4.987168

----------------------------
CARTESIAN COORDINATES (A.U.)
----------------------------
  NO LB      ZA    FRAG    MASS        X           Y           Z
   0 C     6.0000    0    12.011         -0.571670862907797          2.695957023514159         -0.242536801447501
   1 C     6.0000    0    12.011         -0.002182800169551         -0.089828598916247          0.019620676849170
   2 C     6.0000    0    12.011          2.595454021748729         -1.118169609006571         -0.429611565717918
   3 C     6.0000    0    12.011          1.534922126955103         -1.158252716077908          2.228465140795445
   4 C     6.0000    0    12.011          2.630071091253383          0.496068203396960          4.178849718422387
   5 N     7.0000    0    14.007          4.029101717455807          2.427377139742169          3.853282745586455
   6 C     6.0000    0    12.011          4.576621003539165          3.457713038280904          6.370345191414397
   7 C     6.0000    0    12.011          3.267166131841132          1.606586891622180          8.227934617379855
   8 O     8.0000    0    15.999          2.019562939668655         -0.184115729233685          6.593001267586905
   9 H     1.0000    0     1.008          1.006408458540560          3.840639333332376          0.434514065786533
  10 H     1.0000    0     1.008         -0.920474283397061          3.171390283590186         -2.227106750659352
  11 H     1.0000    0     1.008         -2.259995693960427          3.218645012644623          0.836189381476806
  12 H     1.0000    0     1.008         -1.546925202674115         -1.325538741650299         -0.535526618408974
  13 H     1.0000    0     1.008          2.817862886594014         -2.914701459375003         -1.389869897199048
  14 H     1.0000    0     1.008          4.097857134978199          0.238172885232329         -0.750309202045049
  15 H     1.0000    0     1.008          0.894051530714801         -2.952532878389275          2.978326453558261
  16 H     1.0000    0     1.008          6.621698357827781          3.563310335223294          6.670513311863661
  17 H     1.0000    0     1.008          3.837931989029694          5.386145174801550          6.527682307590418
  18 H     1.0000    0     1.008          4.592921224646023          0.572797039528129          9.431854777030463
  19 H     1.0000    0     1.008          1.838206824373543          2.499150028680477          9.424381697430713

--------------------------------
INTERNAL COORDINATES (ANGSTROEM)
--------------------------------
 C      0   0   0   0.000000     0.000     0.000
 C      1   0   0   1.511044     0.000     0.000
 C      2   1   0   1.497395   121.537     0.000
 C      3   2   1   1.514566    61.151   111.814
 C      4   3   2   1.472229   119.794   248.894
 N      5   4   3   1.273684   127.670    17.288
 C      6   5   4   1.468118   106.857   178.698
 C      7   6   5   1.551128   104.611     2.394
 O      5   4   3   1.366005   113.944   197.065
 H      1   2   3   1.092085   111.008   323.048
 H      1   2   3   1.095565   110.221    83.188
 H      1   2   3   1.095703   111.166   202.535
 H      2   1   3   1.087250   114.331   213.947
 H      3   2   1   1.084373   119.514   219.017
 H      3   2   1   1.084455   117.215     6.510
 H      4   3   2   1.083515   117.928   104.899
 H      7   6   5   1.095230   110.214   123.483
 H      7   6   5   1.095955   110.142   241.430
 H      8   7   6   1.094229   113.471   114.538
 H      8   7   6   1.093501   113.770   239.642

---------------------------
INTERNAL COORDINATES (A.U.)
---------------------------
 C      0   0   0   0.000000     0.000     0.000
 C      1   0   0   2.855459     0.000     0.000
 C      2   1   0   2.829666   121.537     0.000
 C      3   2   1   2.862116    61.151   111.814
 C      4   3   2   2.782109   119.794   248.894
 N      5   4   3   2.406914   127.670    17.288
 C      6   5   4   2.774342   106.857   178.698
 C      7   6   5   2.931208   104.611     2.394
 O      5   4   3   2.581375   113.944   197.065
 H      1   2   3   2.063742   111.008   323.048
 H      1   2   3   2.070318   110.221    83.188
 H      1   2   3   2.070578   111.166   202.535
 H      2   1   3   2.054604   114.331   213.947
 H      3   2   1   2.049168   119.514   219.017
 H      3   2   1   2.049324   117.215     6.510
 H      4   3   2   2.047547   117.928   104.899
 H      7   6   5   2.069684   110.214   123.483
 H      7   6   5   2.071055   110.142   241.430
 H      8   7   6   2.067794   113.471   114.538
 H      8   7   6   2.066417   113.770   239.642

---------------------
BASIS SET INFORMATION
---------------------
There are 4 groups of distinct atoms

 Group   1 Type C   : 11s6p2d1f contracted to 5s3p2d1f pattern {62111/411/11/1}
 Group   2 Type N   : 11s6p2d1f contracted to 5s3p2d1f pattern {62111/411/11/1}
 Group   3 Type O   : 11s6p2d1f contracted to 5s3p2d1f pattern {62111/411/11/1}
 Group   4 Type H   : 5s1p contracted to 3s1p pattern {311/1}

Atom   0C    basis set group =>   1
Atom   1C    basis set group =>   1
Atom   2C    basis set group =>   1
Atom   3C    basis set group =>   1
Atom   4C    basis set group =>   1
Atom   5N    basis set group =>   2
Atom   6C    basis set group =>   1
Atom   7C    basis set group =>   1
Atom   8O    basis set group =>   3
Atom   9H    basis set group =>   4
Atom  10H    basis set group =>   4
Atom  11H    basis set group =>   4
Atom  12H    basis set group =>   4
Atom  13H    basis set group =>   4
Atom  14H    basis set group =>   4
Atom  15H    basis set group =>   4
Atom  16H    basis set group =>   4
Atom  17H    basis set group =>   4
Atom  18H    basis set group =>   4
Atom  19H    basis set group =>   4
-------------------------------
AUXILIARY BASIS SET INFORMATION
-------------------------------
There are 4 groups of distinct atoms

 Group   1 Type C   : 14s10p6d2f1g contracted to 10s8p5d1f1g pattern {5111111111/31111111/21111/2/1}
 Group   2 Type N   : 14s10p6d2f1g contracted to 10s8p4d2f1g pattern {5111111111/31111111/3111/11/1}
 Group   3 Type O   : 14s10p6d2f1g contracted to 10s8p4d2f1g pattern {5111111111/31111111/3111/11/1}
 Group   4 Type H   : 4s2p2d contracted to 2s2p2d pattern {31/11/11}

Atom   0C    basis set group =>   1
Atom   1C    basis set group =>   1
Atom   2C    basis set group =>   1
Atom   3C    basis set group =>   1
Atom   4C    basis set group =>   1
Atom   5N    basis set group =>   2
Atom   6C    basis set group =>   1
Atom   7C    basis set group =>   1
Atom   8O    basis set group =>   3
Atom   9H    basis set group =>   4
Atom  10H    basis set group =>   4
Atom  11H    basis set group =>   4
Atom  12H    basis set group =>   4
Atom  13H    basis set group =>   4
Atom  14H    basis set group =>   4
Atom  15H    basis set group =>   4
Atom  16H    basis set group =>   4
Atom  17H    basis set group =>   4
Atom  18H    basis set group =>   4
Atom  19H    basis set group =>   4
------------------------------------------------------------------------------
                           ORCA GTO INTEGRAL CALCULATION
                           -- RI-GTO INTEGRALS CHOSEN --
------------------------------------------------------------------------------

                         BASIS SET STATISTICS AND STARTUP INFO

Gaussian basis set:
 # of primitive gaussian shells          ...  246
 # of primitive gaussian functions       ...  502
 # of contracted shells                  ...  143
 # of contracted basis functions         ...  345
 Highest angular momentum                ...    3
 Maximum contraction depth               ...    6
Auxiliary gaussian basis set:
 # of primitive gaussian shells          ...  385
 # of primitive gaussian functions       ... 1093
 # of contracted shells                  ...  291
 # of contracted aux-basis functions     ...  877
 Highest angular momentum                ...    4
 Maximum contraction depth               ...    5
Ratio of auxiliary to basis functions    ...  2.54
Integral package used                  ... LIBINT
 One Electron integrals                  ... done
 Ordering auxiliary basis shells         ... done
 Integral threshhold             Thresh  ...  2.500e-11
 Primitive cut-off               TCut    ...  2.500e-12
 Pre-screening matrix                    ... done
 Shell pair data                         ... 
 Ordering of the shell pairs             ... done (   0.002 sec) 9282 of 10296 pairs
 Determination of significant pairs      ... done (   0.000 sec)
 Creation of shell pair data             ... done (   0.002 sec)
 Storage of shell pair data              ... done (   0.002 sec)
 Shell pair data done in (   0.005 sec)
 Computing two index integrals           ... done
 Cholesky decomposition of the V-matrix  ... done


Timings:
 Total evaluation time                   ...   0.419 sec (  0.007 min)
 One electron matrix time                ...   0.097 sec (  0.002 min) = 23.1%
 Schwartz matrix evaluation time         ...   0.231 sec (  0.004 min) = 55.2%
 Two index repulsion integral time       ...   0.022 sec (  0.000 min) =  5.3%
 Cholesky decomposition of V             ...   0.036 sec (  0.001 min) =  8.6%
 Three index repulsion integral time     ...   0.000 sec (  0.000 min) =  0.0%

-------------------------------------------------------------------------------
                                 ORCA SCF
-------------------------------------------------------------------------------

------------
SCF SETTINGS
------------
Hamiltonian:
 Ab initio Hamiltonian  Method          .... Hartree-Fock(GTOs)
 RI-approximation to the Coulomb term is turned on
   Number of auxiliary basis functions  .... 877
   RI-JK (J+K treated both via RI)      .... on


General Settings:
 Integral files         IntName         .... dsgdb9nsd_088570
 Hartree-Fock type      HFTyp           .... RHF
 Total Charge           Charge          ....    0
 Multiplicity           Mult            ....    1
 Number of Electrons    NEL             ....   68
 Basis Dimension        Dim             ....  345
 Nuclear Repulsion      ENuc            ....    456.6185845108 Eh

Convergence Acceleration:
 DIIS                   CNVDIIS         .... on
   Start iteration      DIISMaxIt       ....    12
   Startup error        DIISStart       ....  0.200000
   # of expansion vecs  DIISMaxEq       ....     5
   Bias factor          DIISBfac        ....   1.050
   Max. coefficient     DIISMaxC        ....  10.000
 Newton-Raphson         CNVNR           .... off
 SOSCF                  CNVSOSCF        .... on
   Start iteration      SOSCFMaxIt      ....   150
   Startup grad/error   SOSCFStart      ....  0.003300
 Level Shifting         CNVShift        .... on
   Level shift para.    LevelShift      ....    0.2500
   Turn off err/grad.   ShiftErr        ....    0.0010
 Zerner damping         CNVZerner       .... off
 Static damping         CNVDamp         .... on
   Fraction old density DampFac         ....    0.7000
   Max. Damping (<1)    DampMax         ....    0.9800
   Min. Damping (>=0)   DampMin         ....    0.0000
   Turn off err/grad.   DampErr         ....    0.1000
 Fernandez-Rico         CNVRico         .... off

SCF Procedure:
 Maximum # iterations   MaxIter         ....   125
 SCF integral mode      SCFMode         .... Direct
   Integral package                     .... LIBINT
 Reset frequeny         DirectResetFreq ....    20
 Integral Threshold     Thresh          ....  2.500e-11 Eh
 Primitive CutOff       TCut            ....  2.500e-12 Eh

Convergence Tolerance:
 Convergence Check Mode ConvCheckMode   .... Total+1el-Energy
 Energy Change          TolE            ....  1.000e-08 Eh
 1-El. energy change                    ....  1.000e-05 Eh
 Orbital Gradient       TolG            ....  1.000e-05
 Orbital Rotation angle TolX            ....  1.000e-05
 DIIS Error             TolErr          ....  5.000e-07


Diagonalization of the overlap matrix:
Smallest eigenvalue                        ... 6.305e-05
Time for diagonalization                   ...    0.034 sec
Threshold for overlap eigenvalues          ... 1.000e-08
Number of eigenvalues below threshold      ... 0
Time for construction of square roots      ...    0.019 sec
Total time needed                          ...    0.053 sec

-------------------
DFT GRID GENERATION
-------------------

General Integration Accuracy     IntAcc      ...  4.340
Radial Grid Type                 RadialGrid  ... Gauss-Chebyshev
Angular Grid (max. acc.)         AngularGrid ... Lebedev-110
Angular grid pruning method      GridPruning ... 3 (G Style)
Weight generation scheme         WeightScheme... Becke
Basis function cutoff            BFCut       ...    1.0000e-11
Integration weight cutoff        WCut        ...    1.0000e-14
Grids for H and He will be reduced by one unit

# of grid points (after initial pruning)     ...  23744 (   0.0 sec)
# of grid points (after weights+screening)   ...  21746 (   0.1 sec)
nearest neighbour list constructed           ...    0.0 sec
Grid point re-assignment to atoms done       ...    0.0 sec
Grid point division into batches done        ...    0.0 sec
Reduced shell lists constructed in    1.3 sec

Total number of grid points                  ...    21746
Total number of batches                      ...      349
Average number of points per batch           ...       62
Average number of grid points per atom       ...     1087
Average number of shells per batch           ...    93.43 (65.33%)
Average number of basis functions per batch  ...   230.30 (66.75%)
Average number of large shells per batch     ...    71.97 (77.04%)
Average number of large basis fcns per batch ...   175.45 (76.18%)
Average number of aux-shells per batch       ...    93.43 (32.11%)
Average number of aux functions per batch    ...   230.30 (  inf%)
Maximum spatial batch extension              ...  25.60, 18.55, 21.44 au
Average spatial batch extension              ...   3.74,  3.63,  3.53 au

Time for grid setup =    1.483 sec

------------------------------
INITIAL GUESS: MODEL POTENTIAL
------------------------------
Loading Hartree-Fock densities                     ... done
Calculating cut-offs                               ... done
Setting up the integral package                    ... done
Initializing the effective Hamiltonian             ... done
Starting the Coulomb interaction                   ... done (   0.7 sec)
Reading the grid                                   ... done
Mapping shells                                     ... done
Starting the XC term evaluation                    ... done (   0.7 sec)
Transforming the Hamiltonian                       ... done (   0.0 sec)
Diagonalizing the Hamiltonian                      ... done (   0.0 sec)
Back transforming the eigenvectors                 ... done (   0.0 sec)
Now organizing SCF variables                       ... done
                      ------------------
                      INITIAL GUESS DONE (   3.1 sec)
                      ------------------
--------------
SCF ITERATIONS
--------------
ITER       Energy         Delta-E        Max-DP      RMS-DP      [F,P]     Damp
  0   -400.4993311164   0.000000000000 0.03563730  0.00079701  0.3007445 0.7000
  1   -400.3871664405   0.112164675933 0.03524178  0.00085766  0.2477674 0.7000
                               ***Turning on DIIS***
  2   -400.4331661819  -0.045999741388 0.02394276  0.00061295  0.1776166 0.7000
  3   -401.5290627061  -1.095896524198 0.01144648  0.00031719  0.1233367 0.7000
  4   -400.8271855639   0.701877142158 0.03057261  0.00075548  0.0834736 0.0000
  5   -400.8563387348  -0.029153170827 0.00978372  0.00021590  0.0185055 0.0000
  6   -400.7917224601   0.064616274704 0.00505801  0.00010368  0.0107773 0.0000
  7   -400.8262914170  -0.034568956933 0.00232027  0.00005431  0.0067664 0.0000
  8   -400.8199040976   0.006387319387 0.00175112  0.00004411  0.0039912 0.0000
                      *** Initiating the SOSCF procedure ***
                           *** Shutting down DIIS ***
                      *** Re-Reading the Fockian *** 
                      *** Removing any level shift *** 
ITER      Energy       Delta-E        Grad      Rot      Max-DP    RMS-DP
  9   -400.89403009  -0.0741259951  0.000500  0.000500  0.000418  0.000014
 10   -400.89931343  -0.0052833330  0.000222  0.000422  0.000203  0.000005
 11   -400.89931451  -0.0000010868  0.000119  0.000590  0.000244  0.000006
 12   -400.89931506  -0.0000005473  0.000014  0.000019  0.000039  0.000001
 13   -400.89931508  -0.0000000208  0.000004  0.000011  0.000020  0.000000
 14   -400.89931508  -0.0000000024  0.000003  0.000007  0.000005  0.000000
                  ***Gradient check signals convergence***
              ***Rediagonalizing the Fockian in SOSCF/NRSCF***

               *****************************************************
               *                     SUCCESS                       *
               *           SCF CONVERGED AFTER  15 CYCLES          *
               *****************************************************


----------------
TOTAL SCF ENERGY
----------------

Total Energy       :         -400.89931508 Eh          -10909.02497 eV

Components:
Nuclear Repulsion  :          456.61858451 Eh           12425.22337 eV
Electronic Energy  :         -857.51789959 Eh          -23334.24834 eV

One Electron Energy:        -1450.05973924 Eh          -39458.13152 eV
Two Electron Energy:          592.54183965 Eh           16123.88318 eV

Virial components:
Potential Energy   :         -801.24006034 Eh          -21802.85048 eV
Kinetic Energy     :          400.34074526 Eh           10893.82551 eV
Virial Ratio       :            2.00139524


---------------
SCF CONVERGENCE
---------------

  Last Energy change         ...   -3.7915e-10  Tolerance :   1.0000e-08
  Last MAX-Density change    ...    1.3040e-06  Tolerance :   1.0000e-07
  Last RMS-Density change    ...    3.9490e-08  Tolerance :   5.0000e-09
  Last Orbital Gradient      ...    3.7805e-07  Tolerance :   1.0000e-05
  Last Orbital Rotation      ...    1.2119e-06  Tolerance :   1.0000e-05

             **** THE GBW FILE WAS UPDATED (dsgdb9nsd_088570.gbw) ****
             **** DENSITY FILE WAS UPDATED (dsgdb9nsd_088570.scfp.tmp) ****
             **** ENERGY FILE WAS UPDATED (dsgdb9nsd_088570.en.tmp) ****
----------------
ORBITAL ENERGIES
----------------

  NO   OCC          E(Eh)            E(eV) 
   0   2.0000     -20.586344      -560.1829 
   1   2.0000     -15.531167      -422.6245 
   2   2.0000     -11.328363      -308.2604 
   3   2.0000     -11.286136      -307.1114 
   4   2.0000     -11.254960      -306.2630 
   5   2.0000     -11.241638      -305.9005 
   6   2.0000     -11.238628      -305.8186 
   7   2.0000     -11.227348      -305.5117 
   8   2.0000     -11.210187      -305.0447 
   9   2.0000      -1.428381       -38.8682 
  10   2.0000      -1.205073       -32.7917 
  11   2.0000      -1.151050       -31.3217 
  12   2.0000      -1.023465       -27.8499 
  13   2.0000      -0.962186       -26.1824 
  14   2.0000      -0.869789       -23.6682 
  15   2.0000      -0.853599       -23.2276 
  16   2.0000      -0.790376       -21.5072 
  17   2.0000      -0.731593       -19.9076 
  18   2.0000      -0.688530       -18.7358 
  19   2.0000      -0.678427       -18.4609 
  20   2.0000      -0.662665       -18.0320 
  21   2.0000      -0.603271       -16.4158 
  22   2.0000      -0.588721       -16.0199 
  23   2.0000      -0.566683       -15.4202 
  24   2.0000      -0.561527       -15.2799 
  25   2.0000      -0.545940       -14.8558 
  26   2.0000      -0.527166       -14.3449 
  27   2.0000      -0.517623       -14.0852 
  28   2.0000      -0.508272       -13.8308 
  29   2.0000      -0.495916       -13.4946 
  30   2.0000      -0.428530       -11.6609 
  31   2.0000      -0.422360       -11.4930 
  32   2.0000      -0.412759       -11.2317 
  33   2.0000      -0.359349        -9.7784 
  34   0.0000       0.142091         3.8665 
  35   0.0000       0.152858         4.1595 
  36   0.0000       0.167096         4.5469 
  37   0.0000       0.172129         4.6839 
  38   0.0000       0.188893         5.1400 
  39   0.0000       0.191866         5.2210 
  40   0.0000       0.194307         5.2874 
  41   0.0000       0.203859         5.5473 
  42   0.0000       0.222274         6.0484 
  43   0.0000       0.228313         6.2127 
  44   0.0000       0.237946         6.4748 
  45   0.0000       0.248516         6.7625 
  46   0.0000       0.257555         7.0084 
  47   0.0000       0.266413         7.2495 
  48   0.0000       0.283488         7.7141 
  49   0.0000       0.294884         8.0242 
  50   0.0000       0.298811         8.1311 
  51   0.0000       0.309627         8.4254 
  52   0.0000       0.318282         8.6609 
  53   0.0000       0.321412         8.7461 
  54   0.0000       0.337711         9.1896 
  55   0.0000       0.345757         9.4085 
  56   0.0000       0.354104         9.6357 
  57   0.0000       0.377005        10.2588 
  58   0.0000       0.380703        10.3595 
  59   0.0000       0.414076        11.2676 
  60   0.0000       0.429310        11.6821 
  61   0.0000       0.436449        11.8764 
  62   0.0000       0.448064        12.1925 
  63   0.0000       0.455048        12.3825 
  64   0.0000       0.483099        13.1458 
  65   0.0000       0.497451        13.5363 
  66   0.0000       0.509005        13.8507 
  67   0.0000       0.518961        14.1216 
  68   0.0000       0.548785        14.9332 
  69   0.0000       0.554099        15.0778 
  70   0.0000       0.561984        15.2924 
  71   0.0000       0.568597        15.4723 
  72   0.0000       0.573200        15.5976 
  73   0.0000       0.584529        15.9058 
  74   0.0000       0.593339        16.1456 
  75   0.0000       0.600497        16.3404 
  76   0.0000       0.605178        16.4677 
  77   0.0000       0.610542        16.6137 
  78   0.0000       0.617964        16.8157 
  79   0.0000       0.626809        17.0563 
  80   0.0000       0.635195        17.2845 
  81   0.0000       0.643995        17.5240 
  82   0.0000       0.658418        17.9165 
  83   0.0000       0.668074        18.1792 
  84   0.0000       0.671881        18.2828 
  85   0.0000       0.688618        18.7382 
  86   0.0000       0.696642        18.9566 
  87   0.0000       0.709861        19.3163 
  88   0.0000       0.711921        19.3724 
  89   0.0000       0.725740        19.7484 
  90   0.0000       0.729565        19.8525 
  91   0.0000       0.747163        20.3313 
  92   0.0000       0.754726        20.5371 
  93   0.0000       0.770263        20.9599 
  94   0.0000       0.778931        21.1958 
  95   0.0000       0.786892        21.4124 
  96   0.0000       0.824023        22.4228 
  97   0.0000       0.855355        23.2754 
  98   0.0000       0.872834        23.7510 
  99   0.0000       0.900030        24.4911 
 100   0.0000       0.912393        24.8275 
 101   0.0000       0.932318        25.3697 
 102   0.0000       0.972201        26.4549 
 103   0.0000       1.013370        27.5752 
 104   0.0000       1.035715        28.1832 
 105   0.0000       1.038737        28.2655 
 106   0.0000       1.045926        28.4611 
 107   0.0000       1.076171        29.2841 
 108   0.0000       1.097408        29.8620 
 109   0.0000       1.107939        30.1486 
 110   0.0000       1.126391        30.6507 
 111   0.0000       1.136193        30.9174 
 112   0.0000       1.155489        31.4425 
 113   0.0000       1.169006        31.8103 
 114   0.0000       1.191055        32.4103 
 115   0.0000       1.207736        32.8642 
 116   0.0000       1.228342        33.4249 
 117   0.0000       1.235028        33.6068 
 118   0.0000       1.249453        33.9993 
 119   0.0000       1.273635        34.6574 
 120   0.0000       1.283469        34.9250 
 121   0.0000       1.302664        35.4473 
 122   0.0000       1.324303        36.0361 
 123   0.0000       1.336648        36.3721 
 124   0.0000       1.339531        36.4505 
 125   0.0000       1.364798        37.1380 
 126   0.0000       1.390969        37.8502 
 127   0.0000       1.412347        38.4319 
 128   0.0000       1.429093        38.8876 
 129   0.0000       1.442558        39.2540 
 130   0.0000       1.452259        39.5180 
 131   0.0000       1.474817        40.1318 
 132   0.0000       1.494200        40.6593 
 133   0.0000       1.519608        41.3506 
 134   0.0000       1.557925        42.3933 
 135   0.0000       1.577430        42.9240 
 136   0.0000       1.639287        44.6073 
 137   0.0000       1.667343        45.3707 
 138   0.0000       1.693957        46.0949 
 139   0.0000       1.716088        46.6971 
 140   0.0000       1.724489        46.9257 
 141   0.0000       1.737355        47.2758 
 142   0.0000       1.772195        48.2239 
 143   0.0000       1.788689        48.6727 
 144   0.0000       1.809499        49.2390 
 145   0.0000       1.824331        49.6426 
 146   0.0000       1.832787        49.8727 
 147   0.0000       1.856739        50.5244 
 148   0.0000       1.860640        50.6306 
 149   0.0000       1.877340        51.0850 
 150   0.0000       1.888448        51.3873 
 151   0.0000       1.896905        51.6174 
 152   0.0000       1.901702        51.7479 
 153   0.0000       1.923188        52.3326 
 154   0.0000       1.962013        53.3891 
 155   0.0000       1.967342        53.5341 
 156   0.0000       1.979283        53.8590 
 157   0.0000       2.008574        54.6561 
 158   0.0000       2.010970        54.7213 
 159   0.0000       2.046019        55.6750 
 160   0.0000       2.055171        55.9240 
 161   0.0000       2.070334        56.3367 
 162   0.0000       2.096364        57.0450 
 163   0.0000       2.105426        57.2915 
 164   0.0000       2.130189        57.9654 
 165   0.0000       2.147854        58.4461 
 166   0.0000       2.184313        59.4382 
 167   0.0000       2.206264        60.0355 
 168   0.0000       2.211031        60.1652 
 169   0.0000       2.218870        60.3785 
 170   0.0000       2.229922        60.6793 
 171   0.0000       2.242625        61.0249 
 172   0.0000       2.255424        61.3732 
 173   0.0000       2.287932        62.2578 
 174   0.0000       2.293812        62.4178 
 175   0.0000       2.326420        63.3051 
 176   0.0000       2.375728        64.6468 
 177   0.0000       2.388967        65.0071 
 178   0.0000       2.418069        65.7990 
 179   0.0000       2.439084        66.3709 
 180   0.0000       2.458044        66.8868 
 181   0.0000       2.466525        67.1176 
 182   0.0000       2.512265        68.3622 
 183   0.0000       2.533614        68.9431 
 184   0.0000       2.551933        69.4416 
 185   0.0000       2.572383        69.9981 
 186   0.0000       2.605818        70.9079 
 187   0.0000       2.623873        71.3992 
 188   0.0000       2.660060        72.3839 
 189   0.0000       2.664227        72.4973 
 190   0.0000       2.686741        73.1099 
 191   0.0000       2.704579        73.5953 
 192   0.0000       2.719544        74.0026 
 193   0.0000       2.739297        74.5401 
 194   0.0000       2.740551        74.5742 
 195   0.0000       2.753953        74.9389 
 196   0.0000       2.795520        76.0700 
 197   0.0000       2.800987        76.2187 
 198   0.0000       2.819134        76.7125 
 199   0.0000       2.823561        76.8330 
 200   0.0000       2.833527        77.1042 
 201   0.0000       2.852851        77.6300 
 202   0.0000       2.859853        77.8205 
 203   0.0000       2.899630        78.9029 
 204   0.0000       2.904153        79.0260 
 205   0.0000       2.922624        79.5287 
 206   0.0000       2.928838        79.6977 
 207   0.0000       2.935320        79.8741 
 208   0.0000       2.950521        80.2878 
 209   0.0000       2.964398        80.6654 
 210   0.0000       2.994265        81.4781 
 211   0.0000       3.009575        81.8947 
 212   0.0000       3.021817        82.2278 
 213   0.0000       3.049147        82.9715 
 214   0.0000       3.059097        83.2423 
 215   0.0000       3.086551        83.9893 
 216   0.0000       3.094739        84.2121 
 217   0.0000       3.101552        84.3975 
 218   0.0000       3.103634        84.4542 
 219   0.0000       3.137051        85.3635 
 220   0.0000       3.166712        86.1706 
 221   0.0000       3.210512        87.3625 
 222   0.0000       3.231299        87.9281 
 223   0.0000       3.241627        88.2092 
 224   0.0000       3.251510        88.4781 
 225   0.0000       3.273528        89.0772 
 226   0.0000       3.298214        89.7490 
 227   0.0000       3.322834        90.4189 
 228   0.0000       3.325358        90.4876 
 229   0.0000       3.343326        90.9765 
 230   0.0000       3.349228        91.1371 
 231   0.0000       3.380169        91.9791 
 232   0.0000       3.403911        92.6251 
 233   0.0000       3.425313        93.2075 
 234   0.0000       3.434463        93.4565 
 235   0.0000       3.440855        93.6304 
 236   0.0000       3.469054        94.3978 
 237   0.0000       3.478843        94.6641 
 238   0.0000       3.484813        94.8266 
 239   0.0000       3.502002        95.2943 
 240   0.0000       3.514651        95.6385 
 241   0.0000       3.520628        95.8012 
 242   0.0000       3.529673        96.0473 
 243   0.0000       3.554249        96.7160 
 244   0.0000       3.580728        97.4366 
 245   0.0000       3.586492        97.5934 
 246   0.0000       3.603155        98.0468 
 247   0.0000       3.607325        98.1603 
 248   0.0000       3.638948        99.0208 
 249   0.0000       3.653495        99.4167 
 250   0.0000       3.661556        99.6360 
 251   0.0000       3.671390        99.9036 
 252   0.0000       3.688743       100.3758 
 253   0.0000       3.712738       101.0287 
 254   0.0000       3.720318       101.2350 
 255   0.0000       3.741903       101.8223 
 256   0.0000       3.757828       102.2557 
 257   0.0000       3.800833       103.4259 
 258   0.0000       3.812472       103.7426 
 259   0.0000       3.823379       104.0394 
 260   0.0000       3.849092       104.7391 
 261   0.0000       3.875167       105.4487 
 262   0.0000       3.878650       105.5434 
 263   0.0000       3.908188       106.3472 
 264   0.0000       3.921318       106.7045 
 265   0.0000       3.943960       107.3206 
 266   0.0000       3.949479       107.4708 
 267   0.0000       3.969496       108.0155 
 268   0.0000       4.011002       109.1449 
 269   0.0000       4.049593       110.1950 
 270   0.0000       4.086026       111.1864 
 271   0.0000       4.119516       112.0977 
 272   0.0000       4.146290       112.8263 
 273   0.0000       4.177425       113.6735 
 274   0.0000       4.187221       113.9401 
 275   0.0000       4.218998       114.8048 
 276   0.0000       4.223198       114.9191 
 277   0.0000       4.261045       115.9489 
 278   0.0000       4.282690       116.5379 
 279   0.0000       4.295141       116.8767 
 280   0.0000       4.316034       117.4453 
 281   0.0000       4.336043       117.9897 
 282   0.0000       4.350810       118.3916 
 283   0.0000       4.385082       119.3242 
 284   0.0000       4.414584       120.1269 
 285   0.0000       4.432039       120.6019 
 286   0.0000       4.445022       120.9552 
 287   0.0000       4.479975       121.9063 
 288   0.0000       4.512891       122.8020 
 289   0.0000       4.543060       123.6230 
 290   0.0000       4.566736       124.2672 
 291   0.0000       4.601021       125.2001 
 292   0.0000       4.634722       126.1172 
 293   0.0000       4.651313       126.5687 
 294   0.0000       4.700496       127.9070 
 295   0.0000       4.769139       129.7749 
 296   0.0000       4.787053       130.2623 
 297   0.0000       4.812117       130.9444 
 298   0.0000       4.839663       131.6939 
 299   0.0000       4.870726       132.5392 
 300   0.0000       4.939959       134.4231 
 301   0.0000       4.956320       134.8683 
 302   0.0000       5.034732       137.0020 
 303   0.0000       5.046499       137.3222 
 304   0.0000       5.072896       138.0405 
 305   0.0000       5.099221       138.7569 
 306   0.0000       5.138875       139.8359 
 307   0.0000       5.196878       141.4142 
 308   0.0000       5.208206       141.7225 
 309   0.0000       5.270295       143.4120 
 310   0.0000       5.293456       144.0422 
 311   0.0000       5.330204       145.0422 
 312   0.0000       5.378565       146.3582 
 313   0.0000       5.401251       146.9755 
 314   0.0000       5.429034       147.7315 
 315   0.0000       5.538945       150.7224 
 316   0.0000       5.568101       151.5157 
 317   0.0000       5.656752       153.9281 
 318   0.0000       5.732623       155.9926 
 319   0.0000       5.780577       157.2975 
 320   0.0000       5.814244       158.2136 
 321   0.0000       5.890497       160.2886 
 322   0.0000       5.902838       160.6244 
 323   0.0000       6.042383       164.4216 
 324   0.0000       6.199840       168.7062 
 325   0.0000       6.209117       168.9587 
 326   0.0000       6.273515       170.7110 
 327   0.0000       6.330311       172.2565 
 328   0.0000       6.368571       173.2976 
 329   0.0000       6.713944       182.6957 
 330   0.0000       7.011936       190.8045 
 331   0.0000       7.201601       195.9655 
 332   0.0000       7.340087       199.7339 
 333   0.0000       7.369790       200.5422 
 334   0.0000       7.693576       209.3528 
 335   0.0000       7.891128       214.7285 
 336   0.0000      23.459194       638.3571 
 337   0.0000      23.505200       639.6090 
 338   0.0000      23.545339       640.7013 
 339   0.0000      23.587909       641.8596 
 340   0.0000      23.658041       643.7680 
 341   0.0000      23.770930       646.8399 
 342   0.0000      24.370482       663.1545 
 343   0.0000      33.736874       918.0270 
 344   0.0000      45.761706      1245.2393 

                    ********************************
                    * MULLIKEN POPULATION ANALYSIS *
                    ********************************

-----------------------
MULLIKEN ATOMIC CHARGES
-----------------------
   0 C :   -0.349391
   1 C :   -0.030778
   2 C :   -0.224336
   3 C :   -0.078732
   4 C :    0.312270
   5 N :   -0.421625
   6 C :   -0.040179
   7 C :    0.032217
   8 O :   -0.386002
   9 H :    0.147284
  10 H :    0.105083
  11 H :    0.098763
  12 H :    0.099241
  13 H :    0.118328
  14 H :    0.133406
  15 H :    0.119728
  16 H :    0.093365
  17 H :    0.089089
  18 H :    0.089983
  19 H :    0.092284
Sum of atomic charges:   -0.0000000

--------------------------------
MULLIKEN REDUCED ORBITAL CHARGES
--------------------------------
  0 C s       :     3.230943  s :     3.230943
      pz      :     1.047635  p :     3.034454
      px      :     1.065417
      py      :     0.921402
      dz2     :     0.015989  d :     0.079313
      dxz     :     0.011091
      dyz     :     0.015594
      dx2y2   :     0.014330
      dxy     :     0.022309
      f0      :     0.001111  f :     0.004682
      f+1     :     0.000272
      f-1     :     0.000518
      f+2     :     0.000575
      f-2     :     0.000240
      f+3     :     0.000821
      f-3     :     0.001146
  1 C s       :     3.123521  s :     3.123521
      pz      :     0.947077  p :     2.770539
      px      :     0.883335
      py      :     0.940127
      dz2     :     0.025191  d :     0.126563
      dxz     :     0.022844
      dyz     :     0.021343
      dx2y2   :     0.025575
      dxy     :     0.031611
      f0      :     0.001477  f :     0.010155
      f+1     :     0.001315
      f-1     :     0.001113
      f+2     :     0.001347
      f-2     :     0.001181
      f+3     :     0.001616
      f-3     :     0.002106
  2 C s       :     3.212116  s :     3.212116
      pz      :     0.925987  p :     2.920641
      px      :     0.947107
      py      :     1.047546
      dz2     :     0.021456  d :     0.083400
      dxz     :     0.016245
      dyz     :     0.013525
      dx2y2   :     0.012379
      dxy     :     0.019795
      f0      :     0.001587  f :     0.008178
      f+1     :     0.001598
      f-1     :     0.000775
      f+2     :     0.001301
      f-2     :     0.000698
      f+3     :     0.000927
      f-3     :     0.001291
  3 C s       :     3.132408  s :     3.132408
      pz      :     0.851787  p :     2.836673
      px      :     1.058052
      py      :     0.926834
      dz2     :     0.020156  d :     0.099610
      dxz     :     0.023088
      dyz     :     0.025671
      dx2y2   :     0.014989
      dxy     :     0.015706
      f0      :     0.002414  f :     0.010042
      f+1     :     0.001846
      f-1     :     0.001629
      f+2     :     0.001401
      f-2     :     0.001601
      f+3     :     0.000763
      f-3     :     0.000387
  4 C s       :     3.091455  s :     3.091455
      pz      :     0.741345  p :     2.340513
      px      :     0.786889
      py      :     0.812278
      dz2     :     0.043323  d :     0.233676
      dxz     :     0.050892
      dyz     :     0.061294
      dx2y2   :     0.057578
      dxy     :     0.020590
      f0      :     0.004553  f :     0.022087
      f+1     :     0.003379
      f-1     :     0.003840
      f+2     :     0.001919
      f-2     :     0.003287
      f+3     :     0.001699
      f-3     :     0.003409
  5 N s       :     3.615805  s :     3.615805
      pz      :     1.347910  p :     3.731268
      px      :     1.233959
      py      :     1.149398
      dz2     :     0.020448  d :     0.070430
      dxz     :     0.008537
      dyz     :     0.012718
      dx2y2   :     0.016994
      dxy     :     0.011733
      f0      :     0.000628  f :     0.004121
      f+1     :     0.000392
      f-1     :     0.000679
      f+2     :     0.000240
      f-2     :     0.000610
      f+3     :     0.000610
      f-3     :     0.000962
  6 C s       :     3.152108  s :     3.152108
      pz      :     0.784794  p :     2.762951
      px      :     1.007744
      py      :     0.970413
      dz2     :     0.028997  d :     0.116162
      dxz     :     0.023975
      dyz     :     0.026624
      dx2y2   :     0.024344
      dxy     :     0.012223
      f0      :     0.001667  f :     0.008958
      f+1     :     0.001405
      f-1     :     0.001920
      f+2     :     0.001043
      f-2     :     0.001300
      f+3     :     0.001294
      f-3     :     0.000329
  7 C s       :     3.156525  s :     3.156525
      pz      :     0.904676  p :     2.676973
      px      :     0.934968
      py      :     0.837328
      dz2     :     0.015875  d :     0.123448
      dxz     :     0.031971
      dyz     :     0.030867
      dx2y2   :     0.020410
      dxy     :     0.024323
      f0      :     0.001039  f :     0.010838
      f+1     :     0.001041
      f-1     :     0.001789
      f+2     :     0.001880
      f-2     :     0.002881
      f+3     :     0.000749
      f-3     :     0.001459
  8 O s       :     3.773932  s :     3.773932
      pz      :     1.232370  p :     4.567354
      px      :     1.711688
      py      :     1.623296
      dz2     :     0.010287  d :     0.042590
      dxz     :     0.009647
      dyz     :     0.012562
      dx2y2   :     0.003929
      dxy     :     0.006165
      f0      :     0.000496  f :     0.002126
      f+1     :     0.000360
      f-1     :     0.000422
      f+2     :     0.000193
      f-2     :     0.000373
      f+3     :     0.000179
      f-3     :     0.000104
  9 H s       :     0.830024  s :     0.830024
      pz      :     0.005112  p :     0.022691
      px      :     0.010416
      py      :     0.007163
 10 H s       :     0.873334  s :     0.873334
      pz      :     0.013321  p :     0.021583
      px      :     0.003962
      py      :     0.004301
 11 H s       :     0.879688  s :     0.879688
      pz      :     0.006441  p :     0.021549
      px      :     0.010733
      py      :     0.004375
 12 H s       :     0.877231  s :     0.877231
      pz      :     0.005191  p :     0.023528
      px      :     0.010584
      py      :     0.007754
 13 H s       :     0.858505  s :     0.858505
      pz      :     0.006853  p :     0.023167
      px      :     0.003738
      py      :     0.012576
 14 H s       :     0.843148  s :     0.843148
      pz      :     0.004125  p :     0.023446
      px      :     0.010600
      py      :     0.008721
 15 H s       :     0.856123  s :     0.856123
      pz      :     0.005208  p :     0.024149
      px      :     0.005824
      py      :     0.013117
 16 H s       :     0.884686  s :     0.884686
      pz      :     0.003122  p :     0.021949
      px      :     0.015250
      py      :     0.003576
 17 H s       :     0.888995  s :     0.888995
      pz      :     0.002980  p :     0.021916
      px      :     0.004737
      py      :     0.014199
 18 H s       :     0.888355  s :     0.888355
      pz      :     0.007701  p :     0.021662
      px      :     0.008174
      py      :     0.005787
 19 H s       :     0.886013  s :     0.886013
      pz      :     0.007673  p :     0.021703
      px      :     0.008812
      py      :     0.005217


                     *******************************
                     * LOEWDIN POPULATION ANALYSIS *
                     *******************************

----------------------
LOEWDIN ATOMIC CHARGES
----------------------
   0 C :   -0.264501
   1 C :   -0.200529
   2 C :   -0.167249
   3 C :   -0.153357
   4 C :   -0.297575
   5 N :    0.030021
   6 C :   -0.256057
   7 C :   -0.223831
   8 O :    0.174482
   9 H :    0.125510
  10 H :    0.114317
  11 H :    0.113129
  12 H :    0.138499
  13 H :    0.122015
  14 H :    0.136499
  15 H :    0.148212
  16 H :    0.116989
  17 H :    0.115993
  18 H :    0.113593
  19 H :    0.113839

-------------------------------
LOEWDIN REDUCED ORBITAL CHARGES
-------------------------------
  0 C s       :     2.819390  s :     2.819390
      pz      :     1.052145  p :     3.140090
      px      :     1.056522
      py      :     1.031423
      dz2     :     0.053558  d :     0.279700
      dxz     :     0.034500
      dyz     :     0.060882
      dx2y2   :     0.055898
      dxy     :     0.074863
      f0      :     0.004300  f :     0.025322
      f+1     :     0.000822
      f-1     :     0.003120
      f+2     :     0.004736
      f-2     :     0.002808
      f+3     :     0.004383
      f-3     :     0.005153
  1 C s       :     2.720306  s :     2.720306
      pz      :     0.946875  p :     2.918552
      px      :     0.963676
      py      :     1.008000
      dz2     :     0.082525  d :     0.506858
      dxz     :     0.083133
      dyz     :     0.089635
      dx2y2   :     0.104227
      dxy     :     0.147339
      f0      :     0.008425  f :     0.054814
      f+1     :     0.005431
      f-1     :     0.005436
      f+2     :     0.009348
      f-2     :     0.007146
      f+3     :     0.009417
      f-3     :     0.009610
  2 C s       :     2.764958  s :     2.764958
      pz      :     0.975975  p :     2.999762
      px      :     1.003313
      py      :     1.020474
      dz2     :     0.064247  d :     0.360365
      dxz     :     0.083605
      dyz     :     0.070867
      dx2y2   :     0.063644
      dxy     :     0.078002
      f0      :     0.008249  f :     0.042164
      f+1     :     0.008310
      f-1     :     0.004725
      f+2     :     0.007173
      f-2     :     0.003602
      f+3     :     0.005601
      f-3     :     0.004504
  3 C s       :     2.706716  s :     2.706716
      pz      :     0.937902  p :     2.937248
      px      :     1.016927
      py      :     0.982419
      dz2     :     0.117154  d :     0.456897
      dxz     :     0.101223
      dyz     :     0.121911
      dx2y2   :     0.062516
      dxy     :     0.054093
      f0      :     0.014341  f :     0.052497
      f+1     :     0.008209
      f-1     :     0.009053
      f+2     :     0.007483
      f-2     :     0.007394
      f+3     :     0.003785
      f-3     :     0.002231
  4 C s       :     2.724845  s :     2.724845
      pz      :     0.852990  p :     2.606424
      px      :     0.823376
      py      :     0.930058
      dz2     :     0.166714  d :     0.838630
      dxz     :     0.178005
      dyz     :     0.234149
      dx2y2   :     0.153789
      dxy     :     0.105974
      f0      :     0.030789  f :     0.127676
      f+1     :     0.020827
      f-1     :     0.023663
      f+2     :     0.011775
      f-2     :     0.020092
      f+3     :     0.009137
      f-3     :     0.011393
  5 N s       :     3.076580  s :     3.076580
      pz      :     1.300408  p :     3.683520
      px      :     1.183623
      py      :     1.199489
      dz2     :     0.048457  d :     0.191634
      dxz     :     0.029362
      dyz     :     0.044738
      dx2y2   :     0.032024
      dxy     :     0.037053
      f0      :     0.004494  f :     0.018246
      f+1     :     0.002224
      f-1     :     0.003106
      f+2     :     0.001257
      f-2     :     0.002746
      f+3     :     0.002500
      f-3     :     0.001917
  6 C s       :     2.792549  s :     2.792549
      pz      :     0.914985  p :     2.945963
      px      :     1.027306
      py      :     1.003671
      dz2     :     0.129988  d :     0.463056
      dxz     :     0.083744
      dyz     :     0.098458
      dx2y2   :     0.104647
      dxy     :     0.046218
      f0      :     0.011348  f :     0.054489
      f+1     :     0.009473
      f-1     :     0.010255
      f+2     :     0.007291
      f-2     :     0.009435
      f+3     :     0.004946
      f-3     :     0.001740
  7 C s       :     2.806959  s :     2.806959
      pz      :     0.938082  p :     2.860471
      px      :     0.993194
      py      :     0.929194
      dz2     :     0.058716  d :     0.486529
      dxz     :     0.128092
      dyz     :     0.125047
      dx2y2   :     0.072059
      dxy     :     0.102614
      f0      :     0.010183  f :     0.069872
      f+1     :     0.007065
      f-1     :     0.012777
      f+2     :     0.010994
      f-2     :     0.011486
      f+3     :     0.006114
      f-3     :     0.011252
  8 O s       :     3.271711  s :     3.271711
      pz      :     1.274914  p :     4.446500
      px      :     1.610394
      py      :     1.561192
      dz2     :     0.030660  d :     0.100539
      dxz     :     0.022304
      dyz     :     0.028839
      dx2y2   :     0.009197
      dxy     :     0.009540
      f0      :     0.001428  f :     0.006768
      f+1     :     0.001100
      f-1     :     0.001518
      f+2     :     0.000844
      f-2     :     0.001227
      f+3     :     0.000336
      f-3     :     0.000315
  9 H s       :     0.811083  s :     0.811083
      pz      :     0.015773  p :     0.063406
      px      :     0.028948
      py      :     0.018685
 10 H s       :     0.826469  s :     0.826469
      pz      :     0.033517  p :     0.059214
      px      :     0.013070
      py      :     0.012626
 11 H s       :     0.827771  s :     0.827771
      pz      :     0.018778  p :     0.059101
      px      :     0.027597
      py      :     0.012726
 12 H s       :     0.802849  s :     0.802849
      pz      :     0.015126  p :     0.058652
      px      :     0.023716
      py      :     0.019810
 13 H s       :     0.816565  s :     0.816565
      pz      :     0.017852  p :     0.061420
      px      :     0.011912
      py      :     0.031655
 14 H s       :     0.800620  s :     0.800620
      pz      :     0.012588  p :     0.062881
      px      :     0.025702
      py      :     0.024591
 15 H s       :     0.791301  s :     0.791301
      pz      :     0.012753  p :     0.060487
      px      :     0.017184
      py      :     0.030550
 16 H s       :     0.825605  s :     0.825605
      pz      :     0.009784  p :     0.057405
      px      :     0.036121
      py      :     0.011500
 17 H s       :     0.826663  s :     0.826663
      pz      :     0.009451  p :     0.057344
      px      :     0.015265
      py      :     0.032628
 18 H s       :     0.828469  s :     0.828469
      pz      :     0.019117  p :     0.057939
      px      :     0.022616
      py      :     0.016206
 19 H s       :     0.828132  s :     0.828132
      pz      :     0.019008  p :     0.058028
      px      :     0.023514
      py      :     0.015506


                      *****************************
                      * MAYER POPULATION ANALYSIS *
                      *****************************

  NA   - Mulliken gross atomic population
  ZA   - Total nuclear charge
  QA   - Mulliken gross atomic charge
  VA   - Mayer's total valence
  BVA  - Mayer's bonded valence
  FA   - Mayer's free valence

  ATOM       NA         ZA         QA         VA         BVA        FA
  0 C      6.3494     6.0000    -0.3494     3.9321     3.9321    -0.0000
  1 C      6.0308     6.0000    -0.0308     3.8546     3.8546    -0.0000
  2 C      6.2243     6.0000    -0.2243     3.8910     3.8910     0.0000
  3 C      6.0787     6.0000    -0.0787     3.6977     3.6977    -0.0000
  4 C      5.6877     6.0000     0.3123     4.1263     4.1263    -0.0000
  5 N      7.4216     7.0000    -0.4216     2.8785     2.8785    -0.0000
  6 C      6.0402     6.0000    -0.0402     3.9557     3.9557    -0.0000
  7 C      5.9678     6.0000     0.0322     3.8551     3.8551     0.0000
  8 O      8.3860     8.0000    -0.3860     1.9537     1.9537    -0.0000
  9 H      0.8527     1.0000     0.1473     0.9794     0.9794    -0.0000
 10 H      0.8949     1.0000     0.1051     0.9697     0.9697    -0.0000
 11 H      0.9012     1.0000     0.0988     0.9716     0.9716    -0.0000
 12 H      0.9008     1.0000     0.0992     0.9589     0.9589     0.0000
 13 H      0.8817     1.0000     0.1183     0.9682     0.9682    -0.0000
 14 H      0.8666     1.0000     0.1334     0.9871     0.9871    -0.0000
 15 H      0.8803     1.0000     0.1197     0.9673     0.9673    -0.0000
 16 H      0.9066     1.0000     0.0934     0.9630     0.9630     0.0000
 17 H      0.9109     1.0000     0.0891     0.9627     0.9627     0.0000
 18 H      0.9100     1.0000     0.0900     0.9686     0.9686     0.0000
 19 H      0.9077     1.0000     0.0923     0.9674     0.9674     0.0000

  Mayer bond orders larger than 0.1
B(  0-C ,  1-C ) :   0.9534 B(  0-C ,  9-H ) :   0.9799 B(  0-C , 10-H ) :   0.9873 
B(  0-C , 11-H ) :   0.9893 B(  1-C ,  2-C ) :   0.9956 B(  1-C ,  3-C ) :   0.9053 
B(  1-C , 12-H ) :   0.9774 B(  2-C ,  3-C ) :   0.9176 B(  2-C , 13-H ) :   0.9789 
B(  2-C , 14-H ) :   0.9648 B(  3-C ,  4-C ) :   0.9691 B(  3-C , 15-H ) :   0.9847 
B(  4-C ,  5-N ) :   1.9364 B(  4-C ,  8-O ) :   1.0900 B(  5-N ,  6-C ) :   0.9685 
B(  6-C ,  7-C ) :   1.0018 B(  6-C , 16-H ) :   0.9832 B(  6-C , 17-H ) :   0.9815 
B(  7-C ,  8-O ) :   0.8806 B(  7-C , 18-H ) :   0.9827 B(  7-C , 19-H ) :   0.9793 


-------
TIMINGS
-------

Total SCF time: 0 days 0 hours 2 min 50 sec 

Total time                  ....     170.874 sec
Sum of individual times     ....     175.342 sec  (102.6%)

Fock matrix formation       ....     169.107 sec  ( 99.0%)
Diagonalization             ....       0.802 sec  (  0.5%)
Density matrix formation    ....       0.051 sec  (  0.0%)
Population analysis         ....       0.179 sec  (  0.1%)
Initial guess               ....       3.140 sec  (  1.8%)
Orbital Transformation      ....       0.000 sec  (  0.0%)
Orbital Orthonormalization  ....       0.000 sec  (  0.0%)
DIIS solution               ....       0.237 sec  (  0.1%)
SOSCF solution              ....       0.342 sec  (  0.2%)

   <<< Auxbasis replaced with dsgdb9nsd_088570.AUXC.tmp (Dim=849) >>> 


------------------------------------------------------------------------------
                              ORCA MP2 CALCULATION
------------------------------------------------------------------------------

Freezing NCore=18 chemical core electrons

   <<< Use J-auxbasis for calculation of Separable RI-J derivative contributions dsgdb9nsd_088570.AUXJ.tmp (Dim=877) >>> 


---------------------
RI-MP2 ENERGY+DENSITY
---------------------
Dimension of the basis                    ...  345
Memory devoted to MP2                     ... 2000 MB   
Data format for buffers                   ... DOUBLE
Compression type for matrix containers    ... UNCOMPRESSED
Overall scaling of the MP2 energy         ...   1.000e+00 Eh
Calculating two index integrals           ... done (    0.019 sec)
Cholesky decomposition of V**-1           ... done (    0.129 sec)

-----------------
RI-TRANSFORMATION (AUX index driven)
-----------------

Dimension of the orbital-basis         ... 345
Dimension of the aux-basis             ... 849
Transformation of internal MOs         ...    0-  33
Transformation of internal/external MOs...    0-  33 to   34- 344
Number Format for Storage              ... Double (8 Byte)
Integral mode                          ... Direct

First Phase: integral generation and transformation of MO indices
  Aux angular momentum 0               ... done (    0.906 sec)
  Aux angular momentum 1               ... done (    1.246 sec)
  Aux angular momentum 2               ... done (    1.281 sec)
  Aux angular momentum 3               ... done (    0.950 sec)
  Aux angular momentum 4               ... done (    0.433 sec)
Closing buffer VIJ ( 0.00 GB; CompressionRatio= 1.94)
Closing buffer VIA ( 0.07 GB; CompressionRatio= 1.00)
  Phase 1 completed in     4.917 sec
Second Phase: sorting and transformation of aux index

IJ-Transformation
Memory available                       ... 1986 MB 
Max. # MO pairs treated in a batch     ... 34    
# of internal orbitals                 ... 34
# batches for internal orbitals        ... 1
Closing buffer IJV ( 0.00 GB; CompressionRatio= 1.00)
(ij|v) transformation done in     0.203 sec

IA-Transformation
Memory available                       ... 1986 MB 
Max. # MO pairs treated in a batch     ... 34    
# of internal orbitals                 ... 34
# batches for internal orbitals        ... 1
Closing buffer IAV ( 0.07 GB; CompressionRatio= 1.00)
(ia|v) transformation done in     1.588 sec

  Phase 2 completed in     2.014 sec
RI-Integral transformation completed in     6.932 sec
Opening buffers                              ... done
Frozen core precalculation                   ... done

Starting loop over batches of integrals:

Operator 0  - window                       ... (  9- 33)x( 34-344)
Operator 0  - Memory available             ...  2000 MB
Operator 0  - Memory needed per MO         ...   4.0 MB
Operator 0  - Number of orbitals per batch ... 25
Operator 0  - Number of batches            ... 1

OPERATOR  0   PASS   0:  MOs     9 ...   33
  Reading integrals       ... ok
  Internal MO  11
  Internal MO  14
  Internal MO  17
  Internal MO  20
  Internal MO  23
  Internal MO  26
  Internal MO  29
  Internal MO  32
Time spent in pair loops =    42.656 sec
Deleting buffer (Ka|jb)[aa] ...done

-----------------------------------------------
 RI-MP2 CORRELATION ENERGY:     -1.563124531 Eh
-----------------------------------------------


---------------------
MP2 DENSITY FORMATION
---------------------

Completing the external part of the density      ... done
Storing the unrelaxed density                    ... done

Calculating G(D)                                 ... done
Completing the Lagrangian                        ... done
Solving the Z-vector equations                   ... 

------------------------------------------------------------------------------
                           ORCA CP-SCF CALCULATION
------------------------------------------------------------------------------

Input orbitals are from        ... dsgdb9nsd_088570.gbw
Input Perturbation             ... dsgdb9nsd_088570.pin.tmp
Wavefunction output            ... dsgdb9nsd_088570.pout.tmp
Perturbation mode              ... Real perturbation
Solver                         ... POPLE
Max. number of iterations      ... 128
Convergence tolerance          ... 1.000e-08
Integral handling              ... Direct
Number of perturbations        ... 1
Number of operators            ... 1
Orbital ranges used for CP-SCF:
 Operator 0:  Orbitals   0... 33  to  34...344
Variables per vector in CP-SCF ... 10574
Number of vectors sought       ... 1
     CP-SCF ITERATION   0: 
     CP-SCF ITERATION   1:      0.001273243
     CP-SCF ITERATION   2:      0.000174033
     CP-SCF ITERATION   3:      0.000017567
     CP-SCF ITERATION   4:      0.000001743
     CP-SCF ITERATION   5:      0.000000249
     CP-SCF ITERATION   6:      0.000000041
     CP-SCF ITERATION   7:      0.000000007
done
Finalizing the relaxed density                   ... done
Transforming P to the AO basis                   ... done
Storing the relaxed density                      ... done

                *********************************************
                * UNRELAXED MP2 DENSITY POPULATION ANALYSIS *
                *********************************************

------------------------------------------------------------------------------
                           ORCA POPULATION ANALYSIS
------------------------------------------------------------------------------
Input electron density              ... dsgdb9nsd_088570.pmp2ur
BaseName (.gbw .S,...)              ... dsgdb9nsd_088570

                    ********************************
                    * MULLIKEN POPULATION ANALYSIS *
                    ********************************

-----------------------
MULLIKEN ATOMIC CHARGES
-----------------------
   0 C :   -0.357362
   1 C :   -0.038854
   2 C :   -0.232229
   3 C :   -0.079422
   4 C :    0.285535
   5 N :   -0.403499
   6 C :   -0.051183
   7 C :    0.017162
   8 O :   -0.365345
   9 H :    0.149647
  10 H :    0.108491
  11 H :    0.102156
  12 H :    0.103730
  13 H :    0.122130
  14 H :    0.136608
  15 H :    0.124173
  16 H :    0.096938
  17 H :    0.092643
  18 H :    0.093194
  19 H :    0.095488
Sum of atomic charges:   -0.0000000

--------------------------------
MULLIKEN REDUCED ORBITAL CHARGES
--------------------------------
  0 C s       :     3.227814  s :     3.227814
      pz      :     1.042122  p :     3.016518
      px      :     1.058717
      py      :     0.915679
      dz2     :     0.020848  d :     0.104646
      dxz     :     0.016683
      dyz     :     0.021241
      dx2y2   :     0.018662
      dxy     :     0.027212
      f0      :     0.001608  f :     0.008385
      f+1     :     0.000831
      f-1     :     0.001033
      f+2     :     0.001116
      f-2     :     0.000778
      f+3     :     0.001375
      f-3     :     0.001643
  1 C s       :     3.122481  s :     3.122481
      pz      :     0.941515  p :     2.753763
      px      :     0.878611
      py      :     0.933638
      dz2     :     0.029409  d :     0.148481
      dxz     :     0.027135
      dyz     :     0.026386
      dx2y2   :     0.029592
      dxy     :     0.035958
      f0      :     0.001996  f :     0.014129
      f+1     :     0.001798
      f-1     :     0.001622
      f+2     :     0.001948
      f-2     :     0.001745
      f+3     :     0.002337
      f-3     :     0.002684
  2 C s       :     3.210231  s :     3.210231
      pz      :     0.921434  p :     2.903621
      px      :     0.940922
      py      :     1.041265
      dz2     :     0.024683  d :     0.106459
      dxz     :     0.021149
      dyz     :     0.019011
      dx2y2   :     0.017252
      dxy     :     0.024363
      f0      :     0.002075  f :     0.011918
      f+1     :     0.002057
      f-1     :     0.001348
      f+2     :     0.001806
      f-2     :     0.001273
      f+3     :     0.001546
      f-3     :     0.001813
  3 C s       :     3.127367  s :     3.127367
      pz      :     0.845421  p :     2.813194
      px      :     1.047064
      py      :     0.920708
      dz2     :     0.025478  d :     0.124750
      dxz     :     0.027229
      dyz     :     0.029987
      dx2y2   :     0.020911
      dxy     :     0.021145
      f0      :     0.003035  f :     0.014111
      f+1     :     0.002371
      f-1     :     0.002288
      f+2     :     0.002044
      f-2     :     0.002143
      f+3     :     0.001287
      f-3     :     0.000943
  4 C s       :     3.093312  s :     3.093312
      pz      :     0.743222  p :     2.347995
      px      :     0.791430
      py      :     0.813344
      dz2     :     0.045732  d :     0.247574
      dxz     :     0.054493
      dyz     :     0.064647
      dx2y2   :     0.059623
      dxy     :     0.023080
      f0      :     0.005103  f :     0.025583
      f+1     :     0.003864
      f-1     :     0.004426
      f+2     :     0.002572
      f-2     :     0.003810
      f+3     :     0.002096
      f-3     :     0.003713
  5 N s       :     3.607120  s :     3.607120
      pz      :     1.331700  p :     3.689948
      px      :     1.219946
      py      :     1.138302
      dz2     :     0.025684  d :     0.099020
      dxz     :     0.014793
      dyz     :     0.018904
      dx2y2   :     0.022427
      dxy     :     0.017212
      f0      :     0.001134  f :     0.007412
      f+1     :     0.000867
      f-1     :     0.001171
      f+2     :     0.000717
      f-2     :     0.001077
      f+3     :     0.001047
      f-3     :     0.001398
  6 C s       :     3.149762  s :     3.149762
      pz      :     0.783172  p :     2.751003
      px      :     1.002528
      py      :     0.965303
      dz2     :     0.032723  d :     0.137731
      dxz     :     0.028400
      dyz     :     0.030013
      dx2y2   :     0.029236
      dxy     :     0.017359
      f0      :     0.002202  f :     0.012687
      f+1     :     0.001914
      f-1     :     0.002392
      f+2     :     0.001637
      f-2     :     0.001786
      f+3     :     0.001804
      f-3     :     0.000951
  7 C s       :     3.154207  s :     3.154207
      pz      :     0.901768  p :     2.670284
      px      :     0.932162
      py      :     0.836353
      dz2     :     0.021099  d :     0.143979
      dxz     :     0.035689
      dyz     :     0.033781
      dx2y2   :     0.025524
      dxy     :     0.027886
      f0      :     0.001560  f :     0.014368
      f+1     :     0.001608
      f-1     :     0.002315
      f+2     :     0.002448
      f-2     :     0.003248
      f+3     :     0.001245
      f-3     :     0.001944
  8 O s       :     3.767874  s :     3.767874
      pz      :     1.220708  p :     4.520820
      px      :     1.693886
      py      :     1.606226
      dz2     :     0.016136  d :     0.071697
      dxz     :     0.015561
      dyz     :     0.018293
      dx2y2   :     0.009823
      dxy     :     0.011883
      f0      :     0.000904  f :     0.004955
      f+1     :     0.000765
      f-1     :     0.000836
      f+2     :     0.000607
      f-2     :     0.000775
      f+3     :     0.000569
      f-3     :     0.000498
  9 H s       :     0.824645  s :     0.824645
      pz      :     0.006193  p :     0.025708
      px      :     0.011343
      py      :     0.008172
 10 H s       :     0.866796  s :     0.866796
      pz      :     0.014216  p :     0.024714
      px      :     0.005076
      py      :     0.005422
 11 H s       :     0.873146  s :     0.873146
      pz      :     0.007496  p :     0.024698
      px      :     0.011702
      py      :     0.005500
 12 H s       :     0.869662  s :     0.869662
      pz      :     0.006308  p :     0.026608
      px      :     0.011509
      py      :     0.008791
 13 H s       :     0.851692  s :     0.851692
      pz      :     0.007888  p :     0.026179
      px      :     0.004833
      py      :     0.013458
 14 H s       :     0.837042  s :     0.837042
      pz      :     0.005211  p :     0.026350
      px      :     0.011470
      py      :     0.009670
 15 H s       :     0.848714  s :     0.848714
      pz      :     0.006242  p :     0.027112
      px      :     0.006886
      py      :     0.013984
 16 H s       :     0.877998  s :     0.877998
      pz      :     0.004299  p :     0.025065
      px      :     0.016071
      py      :     0.004695
 17 H s       :     0.882310  s :     0.882310
      pz      :     0.004156  p :     0.025047
      px      :     0.005835
      py      :     0.015055
 18 H s       :     0.882052  s :     0.882052
      pz      :     0.008713  p :     0.024755
      px      :     0.009193
      py      :     0.006848
 19 H s       :     0.879727  s :     0.879727
      pz      :     0.008681  p :     0.024785
      px      :     0.009782
      py      :     0.006322


                     *******************************
                     * LOEWDIN POPULATION ANALYSIS *
                     *******************************

----------------------
LOEWDIN ATOMIC CHARGES
----------------------
   0 C :   -0.270202
   1 C :   -0.202322
   2 C :   -0.171908
   3 C :   -0.156742
   4 C :   -0.307786
   5 N :    0.037567
   6 C :   -0.261070
   7 C :   -0.233346
   8 O :    0.187226
   9 H :    0.127235
  10 H :    0.116205
  11 H :    0.114999
  12 H :    0.140307
  13 H :    0.124028
  14 H :    0.138402
  15 H :    0.150057
  16 H :    0.118842
  17 H :    0.117842
  18 H :    0.115198
  19 H :    0.115466

-------------------------------
LOEWDIN REDUCED ORBITAL CHARGES
-------------------------------
  0 C s       :     2.817604  s :     2.817604
      pz      :     1.044615  p :     3.115157
      px      :     1.048678
      py      :     1.021863
      dz2     :     0.059202  d :     0.306653
      dxz     :     0.040306
      dyz     :     0.065799
      dx2y2   :     0.061583
      dxy     :     0.079763
      f0      :     0.005120  f :     0.030787
      f+1     :     0.001502
      f-1     :     0.003928
      f+2     :     0.005455
      f-2     :     0.003509
      f+3     :     0.005193
      f-3     :     0.006080
  1 C s       :     2.718939  s :     2.718939
      pz      :     0.938653  p :     2.892427
      px      :     0.955461
      py      :     0.998313
      dz2     :     0.087427  d :     0.529766
      dxz     :     0.088013
      dyz     :     0.094065
      dx2y2   :     0.109215
      dxy     :     0.151047
      f0      :     0.009079  f :     0.061189
      f+1     :     0.006422
      f-1     :     0.006333
      f+2     :     0.010067
      f-2     :     0.008018
      f+3     :     0.010450
      f-3     :     0.010819
  2 C s       :     2.763636  s :     2.763636
      pz      :     0.967274  p :     2.973995
      px      :     0.994214
      py      :     1.012507
      dz2     :     0.070581  d :     0.386338
      dxz     :     0.087680
      dyz     :     0.075605
      dx2y2   :     0.069105
      dxy     :     0.083367
      f0      :     0.009110  f :     0.047939
      f+1     :     0.009285
      f-1     :     0.005458
      f+2     :     0.007804
      f-2     :     0.004297
      f+3     :     0.006427
      f-3     :     0.005558
  3 C s       :     2.705605  s :     2.705605
      pz      :     0.928674  p :     2.907538
      px      :     1.005284
      py      :     0.973580
      dz2     :     0.121669  d :     0.484421
      dxz     :     0.108010
      dyz     :     0.126670
      dx2y2   :     0.068189
      dxy     :     0.059883
      f0      :     0.015159  f :     0.059177
      f+1     :     0.009455
      f-1     :     0.010071
      f+2     :     0.008495
      f-2     :     0.008555
      f+3     :     0.004481
      f-3     :     0.002959
  4 C s       :     2.723543  s :     2.723543
      pz      :     0.849766  p :     2.601666
      px      :     0.825130
      py      :     0.926771
      dz2     :     0.169372  d :     0.848254
      dxz     :     0.179581
      dyz     :     0.234693
      dx2y2   :     0.154092
      dxy     :     0.110516
      f0      :     0.031476  f :     0.134322
      f+1     :     0.021653
      f-1     :     0.024943
      f+2     :     0.012644
      f-2     :     0.020941
      f+3     :     0.010253
      f-3     :     0.012413
  5 N s       :     3.072225  s :     3.072225
      pz      :     1.285200  p :     3.642320
      px      :     1.170527
      py      :     1.186593
      dz2     :     0.055224  d :     0.225015
      dxz     :     0.035638
      dyz     :     0.051304
      dx2y2   :     0.038834
      dxy     :     0.044015
      f0      :     0.005135  f :     0.022872
      f+1     :     0.002809
      f-1     :     0.003829
      f+2     :     0.001791
      f-2     :     0.003364
      f+3     :     0.003235
      f-3     :     0.002708
  6 C s       :     2.791360  s :     2.791360
      pz      :     0.908611  p :     2.924758
      px      :     1.019909
      py      :     0.996238
      dz2     :     0.133936  d :     0.484689
      dxz     :     0.087607
      dyz     :     0.102583
      dx2y2   :     0.108825
      dxy     :     0.051738
      f0      :     0.012173  f :     0.060263
      f+1     :     0.010247
      f-1     :     0.011320
      f+2     :     0.008007
      f-2     :     0.010151
      f+3     :     0.005866
      f-3     :     0.002499
  7 C s       :     2.805916  s :     2.805916
      pz      :     0.932660  p :     2.844831
      px      :     0.987501
      py      :     0.924670
      dz2     :     0.063082  d :     0.507441
      dxz     :     0.132159
      dyz     :     0.129126
      dx2y2   :     0.076334
      dxy     :     0.106741
      f0      :     0.010843  f :     0.075159
      f+1     :     0.007763
      f-1     :     0.013418
      f+2     :     0.011710
      f-2     :     0.012840
      f+3     :     0.006812
      f-3     :     0.011774
  8 O s       :     3.268966  s :     3.268966
      pz      :     1.262462  p :     4.402114
      px      :     1.594217
      py      :     1.545435
      dz2     :     0.036948  d :     0.131676
      dxz     :     0.028575
      dyz     :     0.035183
      dx2y2   :     0.015151
      dxy     :     0.015819
      f0      :     0.001943  f :     0.010018
      f+1     :     0.001591
      f-1     :     0.002027
      f+2     :     0.001285
      f-2     :     0.001700
      f+3     :     0.000752
      f-3     :     0.000720
  9 H s       :     0.804165  s :     0.804165
      pz      :     0.017206  p :     0.068600
      px      :     0.030932
      py      :     0.020462
 10 H s       :     0.819298  s :     0.819298
      pz      :     0.036060  p :     0.064496
      px      :     0.014391
      py      :     0.014045
 11 H s       :     0.820587  s :     0.820587
      pz      :     0.020422  p :     0.064414
      px      :     0.029824
      py      :     0.014168
 12 H s       :     0.795563  s :     0.795563
      pz      :     0.016552  p :     0.064130
      px      :     0.025872
      py      :     0.021706
 13 H s       :     0.809336  s :     0.809336
      pz      :     0.019454  p :     0.066636
      px      :     0.013233
      py      :     0.033949
 14 H s       :     0.793600  s :     0.793600
      pz      :     0.013942  p :     0.067998
      px      :     0.027668
      py      :     0.026388
 15 H s       :     0.784189  s :     0.784189
      pz      :     0.014310  p :     0.065754
      px      :     0.018557
      py      :     0.032887
 16 H s       :     0.818353  s :     0.818353
      pz      :     0.011226  p :     0.062806
      px      :     0.038754
      py      :     0.012825
 17 H s       :     0.819387  s :     0.819387
      pz      :     0.010870  p :     0.062771
      px      :     0.016704
      py      :     0.035197
 18 H s       :     0.821520  s :     0.821520
      pz      :     0.020973  p :     0.063282
      px      :     0.024448
      py      :     0.017860
 19 H s       :     0.821178  s :     0.821178
      pz      :     0.020855  p :     0.063355
      px      :     0.025393
      py      :     0.017108


                      *****************************
                      * MAYER POPULATION ANALYSIS *
                      *****************************

  NA   - Mulliken gross atomic population
  ZA   - Total nuclear charge
  QA   - Mulliken gross atomic charge
  VA   - Mayer's total valence
  BVA  - Mayer's bonded valence
  FA   - Mayer's free valence

  ATOM       NA         ZA         QA         VA         BVA        FA
  0 C      6.3574     6.0000    -0.3574     4.0508     3.7502     0.3006
  1 C      6.0389     6.0000    -0.0389     3.9541     3.6063     0.3478
  2 C      6.2322     6.0000    -0.2322     4.0012     3.6675     0.3337
  3 C      6.0794     6.0000    -0.0794     3.8003     3.4582     0.3421
  4 C      5.7145     6.0000     0.2855     4.2046     3.8360     0.3685
  5 N      7.4035     7.0000    -0.4035     3.1070     2.6438     0.4632
  6 C      6.0512     6.0000    -0.0512     4.0513     3.7378     0.3135
  7 C      5.9828     6.0000     0.0172     3.9535     3.6470     0.3065
[...]
      dyz     :     0.026437
      dx2y2   :     0.020499
      dxy     :     0.018932
      f0      :     0.002928  f :     0.013597
      f+1     :     0.002232
      f-1     :     0.002243
      f+2     :     0.002037
      f-2     :     0.001967
      f+3     :     0.001243
      f-3     :     0.000948
  4 C s       :     3.104015  s :     3.104015
      pz      :     0.751836  p :     2.448869
      px      :     0.853638
      py      :     0.843394
      dz2     :     0.042805  d :     0.238171
      dxz     :     0.055928
      dyz     :     0.065468
      dx2y2   :     0.050704
      dxy     :     0.023266
      f0      :     0.004888  f :     0.024113
      f+1     :     0.003602
      f-1     :     0.004125
      f+2     :     0.002398
      f-2     :     0.003707
      f+3     :     0.002087
      f-3     :     0.003304
  5 N s       :     3.590958  s :     3.590958
      pz      :     1.295676  p :     3.604715
      px      :     1.189579
      py      :     1.119461
      dz2     :     0.022874  d :     0.092426
      dxz     :     0.015209
      dyz     :     0.018552
      dx2y2   :     0.019954
      dxy     :     0.015838
      f0      :     0.001109  f :     0.007138
      f+1     :     0.000849
      f-1     :     0.001094
      f+2     :     0.000724
      f-2     :     0.001083
      f+3     :     0.000960
      f-3     :     0.001320
  6 C s       :     3.170945  s :     3.170945
      pz      :     0.800494  p :     2.825580
      px      :     1.033046
      py      :     0.992039
      dz2     :     0.031917  d :     0.126053
      dxz     :     0.026874
      dyz     :     0.026472
      dx2y2   :     0.025012
      dxy     :     0.015779
      f0      :     0.002140  f :     0.012059
      f+1     :     0.001791
      f-1     :     0.002230
      f+2     :     0.001608
      f-2     :     0.001631
      f+3     :     0.001705
      f-3     :     0.000955
  7 C s       :     3.174297  s :     3.174297
      pz      :     0.918266  p :     2.735660
      px      :     0.957775
      py      :     0.859619
      dz2     :     0.022929  d :     0.134973
      dxz     :     0.031646
      dyz     :     0.028921
      dx2y2   :     0.026965
      dxy     :     0.024512
      f0      :     0.001524  f :     0.013712
      f+1     :     0.001577
      f-1     :     0.002250
      f+2     :     0.002378
      f-2     :     0.002956
      f+3     :     0.001208
      f-3     :     0.001819
  8 O s       :     3.761431  s :     3.761431
      pz      :     1.216131  p :     4.437235
      px      :     1.651170
      py      :     1.569934
      dz2     :     0.015458  d :     0.070155
      dxz     :     0.015360
      dyz     :     0.017444
      dx2y2   :     0.010181
      dxy     :     0.011713
      f0      :     0.000881  f :     0.004911
      f+1     :     0.000760
      f-1     :     0.000825
      f+2     :     0.000621
      f-2     :     0.000757
      f+3     :     0.000564
      f-3     :     0.000503
  9 H s       :     0.817768  s :     0.817768
      pz      :     0.006249  p :     0.024704
      px      :     0.010572
      py      :     0.007883
 10 H s       :     0.844783  s :     0.844783
      pz      :     0.012906  p :     0.023786
      px      :     0.005315
      py      :     0.005565
 11 H s       :     0.850881  s :     0.850881
      pz      :     0.007299  p :     0.023739
      px      :     0.010827
      py      :     0.005613
 12 H s       :     0.855224  s :     0.855224
      pz      :     0.006479  p :     0.025465
      px      :     0.010665
      py      :     0.008320
 13 H s       :     0.837861  s :     0.837861
      pz      :     0.007794  p :     0.025231
      px      :     0.005065
      py      :     0.012372
 14 H s       :     0.827674  s :     0.827674
      pz      :     0.005439  p :     0.025288
      px      :     0.010723
      py      :     0.009126
 15 H s       :     0.839030  s :     0.839030
      pz      :     0.006182  p :     0.025914
      px      :     0.006911
      py      :     0.012822
 16 H s       :     0.855399  s :     0.855399
      pz      :     0.004495  p :     0.024005
      px      :     0.014550
      py      :     0.004960
 17 H s       :     0.859638  s :     0.859638
      pz      :     0.004373  p :     0.024000
      px      :     0.005883
      py      :     0.013743
 18 H s       :     0.864726  s :     0.864726
      pz      :     0.008294  p :     0.023604
      px      :     0.008661
      py      :     0.006649
 19 H s       :     0.862078  s :     0.862078
      pz      :     0.008265  p :     0.023637
      px      :     0.009140
      py      :     0.006232


                     *******************************
                     * LOEWDIN POPULATION ANALYSIS *
                     *******************************

----------------------
LOEWDIN ATOMIC CHARGES
----------------------
   0 C :   -0.294608
   1 C :   -0.216530
   2 C :   -0.189174
   3 C :   -0.168147
   4 C :   -0.358765
   5 N :    0.075101
   6 C :   -0.283679
   7 C :   -0.265846
   8 O :    0.229062
   9 H :    0.133628
  10 H :    0.126174
  11 H :    0.124804
  12 H :    0.148723
  13 H :    0.132399
  14 H :    0.145073
  15 H :    0.158365
  16 H :    0.129283
  17 H :    0.128399
  18 H :    0.122641
  19 H :    0.123096

-------------------------------
LOEWDIN REDUCED ORBITAL CHARGES
-------------------------------
  0 C s       :     2.822893  s :     2.822893
      pz      :     1.058835  p :     3.149311
      px      :     1.061992
      py      :     1.028484
      dz2     :     0.054137  d :     0.292007
      dxz     :     0.036780
      dyz     :     0.066141
      dx2y2   :     0.057602
      dxy     :     0.077347
      f0      :     0.005021  f :     0.030397
      f+1     :     0.001469
      f-1     :     0.003842
      f+2     :     0.005473
      f-2     :     0.003455
      f+3     :     0.005170
      f-3     :     0.005967
  1 C s       :     2.724600  s :     2.724600
      pz      :     0.949219  p :     2.908131
      px      :     0.959513
      py      :     0.999400
      dz2     :     0.083351  d :     0.523252
      dxz     :     0.086013
      dyz     :     0.095317
      dx2y2   :     0.108242
      dxy     :     0.150329
      f0      :     0.008791  f :     0.060546
      f+1     :     0.006401
      f-1     :     0.006228
      f+2     :     0.010152
      f-2     :     0.007857
      f+3     :     0.010617
      f-3     :     0.010500
  2 C s       :     2.770171  s :     2.770171
      pz      :     0.974844  p :     2.995706
      px      :     0.998648
      py      :     1.022213
      dz2     :     0.066508  d :     0.375979
      dxz     :     0.087069
      dyz     :     0.074384
      dx2y2   :     0.067267
      dxy     :     0.080751
      f0      :     0.008914  f :     0.047318
      f+1     :     0.009198
      f-1     :     0.005476
      f+2     :     0.007585
      f-2     :     0.004275
      f+3     :     0.006428
      f-3     :     0.005441
  3 C s       :     2.712524  s :     2.712524
      pz      :     0.929679  p :     2.913639
      px      :     1.003357
      py      :     0.980603
      dz2     :     0.122101  d :     0.482827
      dxz     :     0.108226
      dyz     :     0.125096
      dx2y2   :     0.068807
      dxy     :     0.058597
      f0      :     0.014728  f :     0.059157
      f+1     :     0.009596
      f-1     :     0.010008
      f+2     :     0.008797
      f-2     :     0.008484
      f+3     :     0.004478
      f-3     :     0.003066
  4 C s       :     2.727241  s :     2.727241
      pz      :     0.848148  p :     2.662596
      px      :     0.869572
      py      :     0.944876
      dz2     :     0.169437  d :     0.838650
      dxz     :     0.179776
      dyz     :     0.233989
      dx2y2   :     0.144023
      dxy     :     0.111425
      f0      :     0.031278  f :     0.130278
      f+1     :     0.020809
      f-1     :     0.024198
      f+2     :     0.011842
      f-2     :     0.020179
      f+3     :     0.010532
      f-3     :     0.011440
  5 N s       :     3.076664  s :     3.076664
      pz      :     1.264605  p :     3.600227
      px      :     1.156128
      py      :     1.179494
      dz2     :     0.053810  d :     0.224646
      dxz     :     0.036204
      dyz     :     0.050984
      dx2y2   :     0.039848
      dxy     :     0.043800
      f0      :     0.005182  f :     0.023362
      f+1     :     0.002838
      f-1     :     0.003793
      f+2     :     0.001841
      f-2     :     0.003431
      f+3     :     0.003265
      f-3     :     0.003012
  6 C s       :     2.799036  s :     2.799036
      pz      :     0.913486  p :     2.954008
      px      :     1.033221
      py      :     1.007301
      dz2     :     0.133012  d :     0.471129
      dxz     :     0.085221
      dyz     :     0.099595
      dx2y2   :     0.103376
      dxy     :     0.049925
      f0      :     0.012053  f :     0.059505
      f+1     :     0.010075
      f-1     :     0.011241
      f+2     :     0.007851
      f-2     :     0.010124
      f+3     :     0.005659
      f-3     :     0.002503
  7 C s       :     2.813921  s :     2.813921
      pz      :     0.940145  p :     2.878865
      px      :     1.001096
      py      :     0.937624
      dz2     :     0.063900  d :     0.499328
      dxz     :     0.129309
      dyz     :     0.125826
      dx2y2   :     0.076646
      dxy     :     0.103647
      f0      :     0.010731  f :     0.073732
      f+1     :     0.007735
      f-1     :     0.013431
      f+2     :     0.011271
      f-2     :     0.012414
      f+3     :     0.006744
      f-3     :     0.011406
  8 O s       :     3.275731  s :     3.275731
      pz      :     1.264362  p :     4.350262
      px      :     1.564950
      py      :     1.520950
      dz2     :     0.036962  d :     0.134621
      dxz     :     0.029960
      dyz     :     0.036030
      dx2y2   :     0.015634
      dxy     :     0.016035
      f0      :     0.001958  f :     0.010324
      f+1     :     0.001669
      f-1     :     0.002100
      f+2     :     0.001345
      f-2     :     0.001759
      f+3     :     0.000759
      f-3     :     0.000734
  9 H s       :     0.797103  s :     0.797103
      pz      :     0.017693  p :     0.069269
      px      :     0.030831
      py      :     0.020745
 10 H s       :     0.808213  s :     0.808213
      pz      :     0.035989  p :     0.065614
      px      :     0.014988
      py      :     0.014636
 11 H s       :     0.809687  s :     0.809687
      pz      :     0.020825  p :     0.065508
      px      :     0.029943
      py      :     0.014740
 12 H s       :     0.786192  s :     0.786192
      pz      :     0.017244  p :     0.065086
      px      :     0.025942
      py      :     0.021900
 13 H s       :     0.800024  s :     0.800024
      pz      :     0.019943  p :     0.067577
      px      :     0.013811
      py      :     0.033823
 14 H s       :     0.786308  s :     0.786308
      pz      :     0.014517  p :     0.068619
      px      :     0.027692
      py      :     0.026411
 15 H s       :     0.775136  s :     0.775136
      pz      :     0.014899  p :     0.066499
      px      :     0.018819
      py      :     0.032781
 16 H s       :     0.806770  s :     0.806770
      pz      :     0.011805  p :     0.063947
      px      :     0.038661
      py      :     0.013481
 17 H s       :     0.807665  s :     0.807665
      pz      :     0.011445  p :     0.063936
      px      :     0.017191
      py      :     0.035300
 18 H s       :     0.813063  s :     0.813063
      pz      :     0.021364  p :     0.064295
      px      :     0.024681
      py      :     0.018250
 19 H s       :     0.812533  s :     0.812533
      pz      :     0.021245  p :     0.064371
      px      :     0.025502
      py      :     0.017624


                      *****************************
                      * MAYER POPULATION ANALYSIS *
                      *****************************

  NA   - Mulliken gross atomic population
  ZA   - Total nuclear charge
  QA   - Mulliken gross atomic charge
  VA   - Mayer's total valence
  BVA  - Mayer's bonded valence
  FA   - Mayer's free valence

  ATOM       NA         ZA         QA         VA         BVA        FA
  0 C      6.4109     6.0000    -0.4109     4.0197     3.7218     0.2980
  1 C      6.0747     6.0000    -0.0747     3.9628     3.6198     0.3430
  2 C      6.2549     6.0000    -0.2549     3.9678     3.6375     0.3303
  3 C      6.0976     6.0000    -0.0976     3.8208     3.4857     0.3351
  4 C      5.8152     6.0000     0.1848     4.3261     3.9764     0.3497
  5 N      7.2952     7.0000    -0.2952     3.2118     2.7661     0.4457
  6 C      6.1346     6.0000    -0.1346     4.0717     3.7620     0.3098
  7 C      6.0586     6.0000    -0.0586     3.9889     3.6878     0.3011
  8 O      8.2737     8.0000    -0.2737     2.3869     1.9643     0.4225
  9 H      0.8425     1.0000     0.1575     0.9968     0.9479     0.0489
 10 H      0.8686     1.0000     0.1314     0.9714     0.9222     0.0492
 11 H      0.8746     1.0000     0.1254     0.9736     0.9242     0.0493
 12 H      0.8807     1.0000     0.1193     0.9633     0.9137     0.0496
 13 H      0.8631     1.0000     0.1369     0.9710     0.9229     0.0481
 14 H      0.8530     1.0000     0.1470     0.9969     0.9484     0.0485
 15 H      0.8649     1.0000     0.1351     0.9746     0.9258     0.0488
 16 H      0.8794     1.0000     0.1206     0.9632     0.9136     0.0496
 17 H      0.8836     1.0000     0.1164     0.9631     0.9131     0.0500
 18 H      0.8883     1.0000     0.1117     0.9664     0.9174     0.0490
 19 H      0.8857     1.0000     0.1143     0.9652     0.9163     0.0489

  Mayer bond orders larger than 0.1
B(  0-C ,  1-C ) :   0.9206 B(  0-C ,  9-H ) :   0.9260 B(  0-C , 10-H ) :   0.9357 
B(  0-C , 11-H ) :   0.9378 B(  1-C ,  2-C ) :   0.9095 B(  1-C ,  3-C ) :   0.8280 
B(  1-C , 12-H ) :   0.9293 B(  2-C ,  3-C ) :   0.8476 B(  2-C , 13-H ) :   0.9291 
B(  2-C , 14-H ) :   0.9177 B(  3-C ,  4-C ) :   0.9534 B(  3-C , 15-H ) :   0.9340 
B(  4-C ,  5-N ) :   1.8116 B(  4-C ,  8-O ) :   1.0858 B(  5-N ,  6-C ) :   0.9402 
B(  6-C ,  7-C ) :   0.9440 B(  6-C , 16-H ) :   0.9266 B(  6-C , 17-H ) :   0.9238 
B(  7-C ,  8-O ) :   0.8769 B(  7-C , 18-H ) :   0.9274 B(  7-C , 19-H ) :   0.9242 



-------
TIMINGS
-------

Total time                :  969.018 sec
Integral trafo            :    6.940 sec (  0.7%)
FC preparation            :    3.977 sec (  0.4%)
I/O of integrals          :    0.056 sec (  0.0%)
K(i,j) Operators          :   10.025 sec (  1.0%)
T(i,j) pair energies      :    0.902 sec (  0.1%)
V-calculation             :    0.019 sec (  0.0%)
V**(-1/2)                 :    0.129 sec (  0.0%)
Gamma(ia|P)               :    9.812 sec (  1.0%)
Gamma-Trafo               :    1.580 sec (  0.2%)
D(virtual)                :    3.743 sec (  0.4%)
D(internal)               :    3.603 sec (  0.4%)
W(virtual)                :    0.000 sec (  0.0%)
W(internal)               :    0.000 sec (  0.0%)
L(virtual)                :   12.398 sec (  1.3%)
L(internal)               :    0.218 sec (  0.0%)
G(D)                      :  107.548 sec ( 11.1%)
G(Z)                      :    0.000 sec (  0.0%)
Z-Vector Solution         :  807.299 sec ( 83.3%)
3-Index Derivative        :    0.000 sec (  0.0%)
2-Index Derivative        :    0.000 sec (  0.0%)
Separable Gradient (RIJ)  :    0.000 sec (  0.0%)
Separable Gradient (X)    :    0.000 sec (  0.0%)


---------------------------------------
MP2 TOTAL ENERGY:     -402.462439614 Eh
---------------------------------------

-------------------------   --------------------
FINAL SINGLE POINT ENERGY      -402.462439614116
-------------------------   --------------------


                            ***************************************
                            *     ORCA property calculations      *
                            ***************************************

                                    ---------------------
                                    Active property flags
                                    ---------------------
   (+) Dipole Moment


------------------------------------------------------------------------------
                       ORCA ELECTRIC PROPERTIES CALCULATION
------------------------------------------------------------------------------

Dipole Moment Calculation                       ... on
Quadrupole Moment Calculation                   ... off
Polarizability Calculation                      ... off
GBWName                                         ... dsgdb9nsd_088570.gbw
Electron density file                           ... dsgdb9nsd_088570.scfp.tmp

-------------
DIPOLE MOMENT
-------------
                                X             Y             Z
Electronic contribution:      1.58372      -2.54221       3.73439
Nuclear contribution   :     -1.72766       2.47599      -3.38865
                        -----------------------------------------
Total Dipole Moment    :     -0.14395      -0.06621       0.34574
                        -----------------------------------------
Magnitude (a.u.)       :      0.38032
Magnitude (Debye)      :      0.96670


                         *** MP2 UNRELAXED DENSITY ***

------------------------------------------------------------------------------
                       ORCA ELECTRIC PROPERTIES CALCULATION
------------------------------------------------------------------------------

Dipole Moment Calculation                       ... on
Quadrupole Moment Calculation                   ... off
Polarizability Calculation                      ... off
GBWName                                         ... dsgdb9nsd_088570.gbw
Electron density file                           ... dsgdb9nsd_088570.pmp2ur

-------------
DIPOLE MOMENT
-------------
                                X             Y             Z
Electronic contribution:      1.58720      -2.53752       3.73411
Nuclear contribution   :     -1.72766       2.47599      -3.38865
                        -----------------------------------------
Total Dipole Moment    :     -0.14046      -0.06153       0.34545
                        -----------------------------------------
Magnitude (a.u.)       :      0.37796
Magnitude (Debye)      :      0.96070


                           *** MP2 RELAXED DENSITY ***

------------------------------------------------------------------------------
                       ORCA ELECTRIC PROPERTIES CALCULATION
------------------------------------------------------------------------------

Dipole Moment Calculation                       ... on
Quadrupole Moment Calculation                   ... off
Polarizability Calculation                      ... off
GBWName                                         ... dsgdb9nsd_088570.gbw
Electron density file                           ... dsgdb9nsd_088570.pmp2re

-------------
DIPOLE MOMENT
-------------
                                X             Y             Z
Electronic contribution:      1.62063      -2.48545       3.76421
Nuclear contribution   :     -1.72766       2.47599      -3.38865
                        -----------------------------------------
Total Dipole Moment    :     -0.10703      -0.00945       0.37556
                        -----------------------------------------
Magnitude (a.u.)       :      0.39063
Magnitude (Debye)      :      0.99290


Timings for individual modules:

Sum of individual times         ...     1143.832 sec (=  19.064 min)
GTO integral calculation        ...        0.565 sec (=   0.009 min)   0.0 %
SCF iterations                  ...      174.088 sec (=   2.901 min)  15.2 %
MP2 module                      ...      969.180 sec (=  16.153 min)  84.7 %
                             ****ORCA TERMINATED NORMALLY****
TOTAL RUN TIME: 0 days 0 hours 19 minutes 4 seconds 331 msec
