
                                 *****************
                                 * O   R   C   A *
                                 *****************

           --- An Ab Initio, DFT and Semiempirical electronic structure package ---

                  #######################################################
                  #                        -***-                        #
                  #  Department of molecular theory and spectroscopy    #
                  #              Directorship: Frank Neese              #
                  # Max Planck Institute for Chemical Energy Conversion #
                  #                  D-45470 Muelheim/Ruhr              #
                  #                       Germany                       #
                  #                                                     #
                  #                  All rights reserved                #
                  #                        -***-                        #
                  #######################################################


                         Program Version 3.0.3 - RELEASE   -


 With contributions from (in alphabetic order):
   Ute Becker             : Parallelization
   Dmytro Bykov           : SCF Hessian
   Dmitry Ganyushin       : Spin-Orbit,Spin-Spin,Magnetic field MRCI
   Andreas Hansen         : Spin unrestricted coupled pair/coupled cluster methods
   Dimitrios Liakos       : Extrapolation schemes; parallel MDCI
   Robert Izsak           : Overlap fitted RIJCOSX, COSX-SCS-MP3
   Christian Kollmar      : KDIIS, OOCD, Brueckner-CCSD(T), CCSD density
   Simone Kossmann        : Meta GGA functionals, TD-DFT gradient, OOMP2, MP2 Hessian
   Taras Petrenko         : DFT Hessian,TD-DFT gradient, ASA and ECA modules, normal mode analysis, Resonance Raman, ABS, FL, XAS/XES, NRVS
   Christoph Reimann      : Effective Core Potentials
   Michael Roemelt        : Restricted open shell CIS
   Christoph Riplinger    : Improved optimizer, TS searches, QM/MM, DLPNO-CCSD
   Barbara Sandhoefer     : DKH picture change effects
   Igor Schapiro          : Molecular dynamics
   Kantharuban Sivalingam : CASSCF convergence, NEVPT2
   Boris Wezisla          : Elementary symmetry handling
   Frank Wennmohs         : Technical directorship


 We gratefully acknowledge several colleagues who have allowed us to
 interface, adapt or use parts of their codes:
   Stefan Grimme, W. Hujo, H. Kruse, T. Risthaus : VdW corrections, initial TS optimization,
                                                   DFT functionals, gCP
   Ed Valeev                                     : LibInt (2-el integral package), F12 methods
   Garnet Chan, S. Sharma, R. Olivares           : DMRG
   Ulf Ekstrom                                   : XCFun DFT Library
   Mihaly Kallay                                 : mrcc  (arbitrary order and MRCC methods)
   Andreas Klamt, Michael Diedenhofen            : otool_cosmo (COSMO solvation model)
   Frank Weinhold                                : gennbo (NPA and NBO analysis)
   Christopher J. Cramer and Donald G. Truhlar   : smd solvation model


 Your calculation uses the libint2 library for the computation of 2-el integrals
 For citations please refer to: http://libint.valeyev.net

 This ORCA versions uses:
   CBLAS   interface :  Fast vector & matrix operations
   LAPACKE interface :  Fast linear algebra routines
   SCALAPACK package :  Parallel linear algebra routines


Your calculation utilizes the basis: Ahlrichs-TZV
Cite in your paper:
H - Kr: A. Schaefer, H. Horn and R. Ahlrichs, J. Chem. Phys. 97, 2571 (1992).

The def2-TZV basis will be loaded
Cite in your paper:
 	F. Weigend, R. Ahlrichs, Phys. Chem. Chem. Phys. 2005, 7, 3297.

================================================================================
                                        WARNINGS
                       Please study these warnings very carefully!
================================================================================
Now building the actual basis set


INFO   : the flag for use of LIBINT has been found!

================================================================================
                                       INPUT FILE
================================================================================
NAME = dsgdb9nsd_113583.inp
|  1> ! RI-MP2 RIJK def2-TZVP def2-TZVP/C def2-TZVP/JK TIGHTSCF
|  2> % maxcore 2000
|  3> % mp2 density relaxed end
|  4> *xyz 0 1
|  5>  C       -0.1497273688     1.5864174873    -0.3306431511 
|  6>  C       -0.0048562809     0.1722225566     0.2267630079 
|  7>  N       -1.2824838969    -0.5285619129     0.1664341422 
|  8>  C       -1.5617546881    -1.3095213102    -1.0375362188 
|  9>  C       -1.3273927522    -1.9845540785     0.2677493140 
| 10>  C       -0.1169414291    -2.8899601616     0.5347193889 
| 11>  C       -0.5900499774    -3.7068804346     1.7476981438 
| 12>  O       -1.9959563338    -3.8283152505     1.5878673405 
| 13>  C       -2.4582007015    -2.5678939561     1.1282378437 
| 14>  H        0.7971034925     2.1302209215    -0.2569930188 
| 15>  H       -0.4448329007     1.5609524003    -1.3847006736 
| 16>  H       -0.9153364063     2.1392911287     0.2204354922 
| 17>  H        0.7927257642    -0.3595804042    -0.3207080083 
| 18>  H        0.3048431171     0.2163408286     1.2783688514 
| 19>  H       -2.5660274898    -1.2225885863    -1.4470990536 
| 20>  H       -0.7721268796    -1.3866565451    -1.7865909688 
| 21>  H        0.0663590687    -3.5496495236    -0.3185330564 
| 22>  H        0.8026566245    -2.3350391406     0.7346587490 
| 23>  H       -0.1675533577    -4.7132790876     1.7976223701 
| 24>  H       -0.3488661761    -3.1812399161     2.6869896084 
| 25>  H       -2.6607113139    -1.8838628594     1.9674827299 
| 26>  H       -3.3893837242    -2.7290476859     0.5779524377 
| 27> *
| 28> 
| 29>                          ****END OF INPUT****
================================================================================

                       ****************************
                       * Single Point Calculation *
                       ****************************

---------------------------------
CARTESIAN COORDINATES (ANGSTROEM)
---------------------------------
  C     -0.149727    1.586417   -0.330643
  C     -0.004856    0.172223    0.226763
  N     -1.282484   -0.528562    0.166434
  C     -1.561755   -1.309521   -1.037536
  C     -1.327393   -1.984554    0.267749
  C     -0.116941   -2.889960    0.534719
  C     -0.590050   -3.706880    1.747698
  O     -1.995956   -3.828315    1.587867
  C     -2.458201   -2.567894    1.128238
  H      0.797103    2.130221   -0.256993
  H     -0.444833    1.560952   -1.384701
  H     -0.915336    2.139291    0.220435
  H      0.792726   -0.359580   -0.320708
  H      0.304843    0.216341    1.278369
  H     -2.566027   -1.222589   -1.447099
  H     -0.772127   -1.386657   -1.786591
  H      0.066359   -3.549650   -0.318533
  H      0.802657   -2.335039    0.734659
  H     -0.167553   -4.713279    1.797622
  H     -0.348866   -3.181240    2.686990
  H     -2.660711   -1.883863    1.967483
  H     -3.389384   -2.729048    0.577952

----------------------------
CARTESIAN COORDINATES (A.U.)
----------------------------
  NO LB      ZA    FRAG    MASS        X           Y           Z
   0 C     6.0000    0    12.011         -0.282943721784625          2.997894585060496         -0.624825003635743
   1 C     6.0000    0    12.011         -0.009177040930393          0.325453466057752          0.428519982235221
   2 N     7.0000    0    14.007         -2.423543336305098         -0.998837260202538          0.314514948092106
   3 C     6.0000    0    12.011         -2.951288648876603         -2.474636642811738         -1.960659307556198
   4 C     6.0000    0    12.011         -2.508408773809996         -3.750263706321457          0.505972876005287
   5 C     6.0000    0    12.011         -0.220987274708369         -5.461233243366803          1.010473203518731
   6 C     6.0000    0    12.011         -1.115032862612424         -7.004988832584987          3.302670856544522
   7 O     8.0000    0    15.999         -3.771810846147509         -7.234467377759134          3.000634410542884
   8 C     6.0000    0    12.011         -4.645326108048104         -4.852616317980601          2.132060538518850
   9 H     1.0000    0     1.008          1.506307301217152          4.025534146384361         -0.485646423861676
  10 H     1.0000    0     1.008         -0.840612357680787          2.949772544654017         -2.616705050560281
  11 H     1.0000    0     1.008         -1.729735128314671          4.042674353970282          0.416562710454134
  12 H     1.0000    0     1.008          1.498034593641436         -0.679508487062707         -0.606050304642344
  13 H     1.0000    0     1.008          0.576070005129886          0.408824917639598          2.415767027281473
  14 H     1.0000    0     1.008         -4.849089207835409         -2.310357602564947         -2.734620899960630
  15 H     1.0000    0     1.008         -1.459108343083188         -2.620401112048423         -3.376167644369047
  16 H     1.0000    0     1.008          0.125400466345066         -6.707865471008041         -0.601940241196892
  17 H     1.0000    0     1.008          1.516801199882667         -4.412584487720840          1.388303837499193
  18 H     1.0000    0     1.008         -0.316629958871946         -8.906806668302233          3.397013971699431
  19 H     1.0000    0     1.008         -0.659261530217344         -6.011672207727620          5.077674484568310
  20 H     1.0000    0     1.008         -5.028015704696781         -3.559984878131797          3.718003532730757
  21 H     1.0000    0     1.008         -6.405007001508080         -5.157152732762545          1.092171825685184

--------------------------------
INTERNAL COORDINATES (ANGSTROEM)
--------------------------------
 C      0   0   0   0.000000     0.000     0.000
 C      1   0   0   1.526970     0.000     0.000
 N      2   1   0   1.458448   110.292     0.000
 C      3   2   1   1.461997   117.263    91.177
 C      3   2   1   1.460204   120.211   162.115
 C      5   3   2   1.535000   125.167     4.378
 C      6   5   3   1.537045   102.006   126.388
 O      7   6   5   1.420164   105.150    31.598
 C      8   7   6   1.419011   106.438   319.254
 H      1   2   3   1.094365   110.705   178.059
 H      1   2   3   1.094885   110.822   297.912
 H      1   2   3   1.093396   110.533    57.555
 H      2   1   3   1.103937   109.492   124.173
 H      2   1   3   1.097149   109.842   241.279
 H      4   3   2   1.088055   116.335   223.011
 H      4   3   2   1.091121   117.701     4.560
 H      6   5   3   1.093997   110.619   243.685
 H      6   5   3   1.092508   113.328     5.060
 H      7   6   5   1.092627   113.990   149.704
 H      7   6   5   1.103058   110.575   272.107
 H      9   8   7   1.101472   111.389   273.855
 H      9   8   7   1.093566   108.028   154.709

---------------------------
INTERNAL COORDINATES (A.U.)
---------------------------
 C      0   0   0   0.000000     0.000     0.000
 C      1   0   0   2.885555     0.000     0.000
 N      2   1   0   2.756067   110.292     0.000
 C      3   2   1   2.762773   117.263    91.177
 C      3   2   1   2.759385   120.211   162.115
 C      5   3   2   2.900730   125.167     4.378
 C      6   5   3   2.904594   102.006   126.388
 O      7   6   5   2.683720   105.150    31.598
 C      8   7   6   2.681541   106.438   319.254
 H      1   2   3   2.068051   110.705   178.059
 H      1   2   3   2.069033   110.822   297.912
 H      1   2   3   2.066218   110.533    57.555
 H      2   1   3   2.086138   109.492   124.173
 H      2   1   3   2.073310   109.842   241.279
 H      4   3   2   2.056125   116.335   223.011
 H      4   3   2   2.061920   117.701     4.560
 H      6   5   3   2.067354   110.619   243.685
 H      6   5   3   2.064541   113.328     5.060
 H      7   6   5   2.064766   113.990   149.704
 H      7   6   5   2.084477   110.575   272.107
 H      9   8   7   2.081481   111.389   273.855
 H      9   8   7   2.066540   108.028   154.709

---------------------
BASIS SET INFORMATION
---------------------
There are 4 groups of distinct atoms

 Group   1 Type C   : 11s6p2d1f contracted to 5s3p2d1f pattern {62111/411/11/1}
 Group   2 Type N   : 11s6p2d1f contracted to 5s3p2d1f pattern {62111/411/11/1}
 Group   3 Type O   : 11s6p2d1f contracted to 5s3p2d1f pattern {62111/411/11/1}
 Group   4 Type H   : 5s1p contracted to 3s1p pattern {311/1}

Atom   0C    basis set group =>   1
Atom   1C    basis set group =>   1
Atom   2N    basis set group =>   2
Atom   3C    basis set group =>   1
Atom   4C    basis set group =>   1
Atom   5C    basis set group =>   1
Atom   6C    basis set group =>   1
Atom   7O    basis set group =>   3
Atom   8C    basis set group =>   1
Atom   9H    basis set group =>   4
Atom  10H    basis set group =>   4
Atom  11H    basis set group =>   4
Atom  12H    basis set group =>   4
Atom  13H    basis set group =>   4
Atom  14H    basis set group =>   4
Atom  15H    basis set group =>   4
Atom  16H    basis set group =>   4
Atom  17H    basis set group =>   4
Atom  18H    basis set group =>   4
Atom  19H    basis set group =>   4
Atom  20H    basis set group =>   4
Atom  21H    basis set group =>   4
-------------------------------
AUXILIARY BASIS SET INFORMATION
-------------------------------
There are 4 groups of distinct atoms

 Group   1 Type C   : 14s10p6d2f1g contracted to 10s8p5d1f1g pattern {5111111111/31111111/21111/2/1}
 Group   2 Type N   : 14s10p6d2f1g contracted to 10s8p4d2f1g pattern {5111111111/31111111/3111/11/1}
 Group   3 Type O   : 14s10p6d2f1g contracted to 10s8p4d2f1g pattern {5111111111/31111111/3111/11/1}
 Group   4 Type H   : 4s2p2d contracted to 2s2p2d pattern {31/11/11}

Atom   0C    basis set group =>   1
Atom   1C    basis set group =>   1
Atom   2N    basis set group =>   2
Atom   3C    basis set group =>   1
Atom   4C    basis set group =>   1
Atom   5C    basis set group =>   1
Atom   6C    basis set group =>   1
Atom   7O    basis set group =>   3
Atom   8C    basis set group =>   1
Atom   9H    basis set group =>   4
Atom  10H    basis set group =>   4
Atom  11H    basis set group =>   4
Atom  12H    basis set group =>   4
Atom  13H    basis set group =>   4
Atom  14H    basis set group =>   4
Atom  15H    basis set group =>   4
Atom  16H    basis set group =>   4
Atom  17H    basis set group =>   4
Atom  18H    basis set group =>   4
Atom  19H    basis set group =>   4
Atom  20H    basis set group =>   4
Atom  21H    basis set group =>   4
------------------------------------------------------------------------------
                           ORCA GTO INTEGRAL CALCULATION
                           -- RI-GTO INTEGRALS CHOSEN --
------------------------------------------------------------------------------

                         BASIS SET STATISTICS AND STARTUP INFO

Gaussian basis set:
 # of primitive gaussian shells          ...  258
 # of primitive gaussian functions       ...  518
 # of contracted shells                  ...  151
 # of contracted basis functions         ...  357
 Highest angular momentum                ...    3
 Maximum contraction depth               ...    6
Auxiliary gaussian basis set:
 # of primitive gaussian shells          ...  401
 # of primitive gaussian functions       ... 1133
 # of contracted shells                  ...  303
 # of contracted aux-basis functions     ...  913
 Highest angular momentum                ...    4
 Maximum contraction depth               ...    5
Ratio of auxiliary to basis functions    ...  2.56
Integral package used                  ... LIBINT
 One Electron integrals                  ... done
 Ordering auxiliary basis shells         ... done
 Integral threshhold             Thresh  ...  2.500e-11
 Primitive cut-off               TCut    ...  2.500e-12
 Pre-screening matrix                    ... done
 Shell pair data                         ... 
 Ordering of the shell pairs             ... done (   0.003 sec) 10318 of 11476 pairs
 Determination of significant pairs      ... done (   0.000 sec)
 Creation of shell pair data             ... done (   0.003 sec)
 Storage of shell pair data              ... done (   0.003 sec)
 Shell pair data done in (   0.009 sec)
 Computing two index integrals           ... done
 Cholesky decomposition of the V-matrix  ... done


Timings:
 Total evaluation time                   ...   0.629 sec (  0.010 min)
 One electron matrix time                ...   0.174 sec (  0.003 min) = 27.6%
 Schwartz matrix evaluation time         ...   0.314 sec (  0.005 min) = 49.9%
 Two index repulsion integral time       ...   0.032 sec (  0.001 min) =  5.1%
 Cholesky decomposition of V             ...   0.070 sec (  0.001 min) = 11.1%
 Three index repulsion integral time     ...   0.000 sec (  0.000 min) =  0.0%

-------------------------------------------------------------------------------
                                 ORCA SCF
-------------------------------------------------------------------------------

------------
SCF SETTINGS
------------
Hamiltonian:
 Ab initio Hamiltonian  Method          .... Hartree-Fock(GTOs)
 RI-approximation to the Coulomb term is turned on
   Number of auxiliary basis functions  .... 913
   RI-JK (J+K treated both via RI)      .... on


General Settings:
 Integral files         IntName         .... dsgdb9nsd_113583
 Hartree-Fock type      HFTyp           .... RHF
 Total Charge           Charge          ....    0
 Multiplicity           Mult            ....    1
 Number of Electrons    NEL             ....   70
 Basis Dimension        Dim             ....  357
 Nuclear Repulsion      ENuc            ....    478.4646044270 Eh

Convergence Acceleration:
 DIIS                   CNVDIIS         .... on
   Start iteration      DIISMaxIt       ....    12
   Startup error        DIISStart       ....  0.200000
   # of expansion vecs  DIISMaxEq       ....     5
   Bias factor          DIISBfac        ....   1.050
   Max. coefficient     DIISMaxC        ....  10.000
 Newton-Raphson         CNVNR           .... off
 SOSCF                  CNVSOSCF        .... on
   Start iteration      SOSCFMaxIt      ....   150
   Startup grad/error   SOSCFStart      ....  0.003300
 Level Shifting         CNVShift        .... on
   Level shift para.    LevelShift      ....    0.2500
   Turn off err/grad.   ShiftErr        ....    0.0010
 Zerner damping         CNVZerner       .... off
 Static damping         CNVDamp         .... on
   Fraction old density DampFac         ....    0.7000
   Max. Damping (<1)    DampMax         ....    0.9800
   Min. Damping (>=0)   DampMin         ....    0.0000
   Turn off err/grad.   DampErr         ....    0.1000
 Fernandez-Rico         CNVRico         .... off

SCF Procedure:
 Maximum # iterations   MaxIter         ....   125
 SCF integral mode      SCFMode         .... Direct
   Integral package                     .... LIBINT
 Reset frequeny         DirectResetFreq ....    20
 Integral Threshold     Thresh          ....  2.500e-11 Eh
 Primitive CutOff       TCut            ....  2.500e-12 Eh

Convergence Tolerance:
 Convergence Check Mode ConvCheckMode   .... Total+1el-Energy
 Energy Change          TolE            ....  1.000e-08 Eh
 1-El. energy change                    ....  1.000e-05 Eh
 Orbital Gradient       TolG            ....  1.000e-05
 Orbital Rotation angle TolX            ....  1.000e-05
 DIIS Error             TolErr          ....  5.000e-07


Diagonalization of the overlap matrix:
Smallest eigenvalue                        ... 6.798e-05
Time for diagonalization                   ...    0.059 sec
Threshold for overlap eigenvalues          ... 1.000e-08
Number of eigenvalues below threshold      ... 0
Time for construction of square roots      ...    0.039 sec
Total time needed                          ...    0.099 sec

-------------------
DFT GRID GENERATION
-------------------

General Integration Accuracy     IntAcc      ...  4.340
Radial Grid Type                 RadialGrid  ... Gauss-Chebyshev
Angular Grid (max. acc.)         AngularGrid ... Lebedev-110
Angular grid pruning method      GridPruning ... 3 (G Style)
Weight generation scheme         WeightScheme... Becke
Basis function cutoff            BFCut       ...    1.0000e-11
Integration weight cutoff        WCut        ...    1.0000e-14
Grids for H and He will be reduced by one unit

# of grid points (after initial pruning)     ...  25332 (   0.0 sec)
# of grid points (after weights+screening)   ...  23076 (   0.2 sec)
nearest neighbour list constructed           ...    0.0 sec
Grid point re-assignment to atoms done       ...    0.0 sec
Grid point division into batches done        ...    0.0 sec
Reduced shell lists constructed in    2.1 sec

Total number of grid points                  ...    23076
Total number of batches                      ...      370
Average number of points per batch           ...       62
Average number of grid points per atom       ...     1049
Average number of shells per batch           ...    99.57 (65.94%)
Average number of basis functions per batch  ...   239.88 (67.19%)
Average number of large shells per batch     ...    76.13 (76.45%)
Average number of large basis fcns per batch ...   181.34 (75.60%)
Average number of aux-shells per batch       ...    99.57 (32.86%)
Average number of aux functions per batch    ...   239.88 (  inf%)
Maximum spatial batch extension              ...  19.93, 17.22, 20.76 au
Average spatial batch extension              ...   3.58,  3.38,  3.65 au

Time for grid setup =    2.372 sec

------------------------------
INITIAL GUESS: MODEL POTENTIAL
------------------------------
Loading Hartree-Fock densities                     ... done
Calculating cut-offs                               ... done
Setting up the integral package                    ... done
Initializing the effective Hamiltonian             ... done
Starting the Coulomb interaction                   ... done (   1.3 sec)
Reading the grid                                   ... done
Mapping shells                                     ... done
Starting the XC term evaluation                    ... done (   1.3 sec)
Transforming the Hamiltonian                       ... done (   0.0 sec)
Diagonalizing the Hamiltonian                      ... done (   0.1 sec)
Back transforming the eigenvectors                 ... done (   0.0 sec)
Now organizing SCF variables                       ... done
                      ------------------
                      INITIAL GUESS DONE (   5.2 sec)
                      ------------------
--------------
SCF ITERATIONS
--------------
ITER       Energy         Delta-E        Max-DP      RMS-DP      [F,P]     Damp
  0   -401.6448478717   0.000000000000 0.03415651  0.00075549  0.2963971 0.7000
  1   -401.5156958516   0.129152020017 0.03422328  0.00080677  0.2478675 0.7000
                               ***Turning on DIIS***
  2   -401.5599530577  -0.044257206043 0.02400722  0.00058096  0.1806062 0.7000
  3   -402.8860839413  -1.326130883613 0.01175643  0.00031035  0.1264235 0.7000
  4   -402.0510768419   0.835007099426 0.03728762  0.00079788  0.0839208 0.0000
  5   -402.0389302093   0.012146632519 0.00702714  0.00017141  0.0160800 0.0000
  6   -401.9259121915   0.113018017803 0.00398145  0.00009674  0.0101413 0.0000
  7   -401.9638284380  -0.037916246488 0.00204202  0.00005419  0.0066878 0.0000
  8   -401.9518573221   0.011971115885 0.00166488  0.00004182  0.0034130 0.0000
                      *** Initiating the SOSCF procedure ***
                           *** Shutting down DIIS ***
                      *** Re-Reading the Fockian *** 
                      *** Removing any level shift *** 
ITER      Energy       Delta-E        Grad      Rot      Max-DP    RMS-DP
  9   -402.03354492  -0.0816875930  0.000092  0.000092  0.000507  0.000014
 10   -402.03963865  -0.0060937365  0.000032  0.000057  0.000139  0.000004
 11   -402.03963878  -0.0000001319  0.000023  0.000020  0.000047  0.000001
 12   -402.03963884  -0.0000000546  0.000004  0.000011  0.000026  0.000001
                  ***Gradient check signals convergence***
              ***Rediagonalizing the Fockian in SOSCF/NRSCF***

               *****************************************************
               *                     SUCCESS                       *
               *           SCF CONVERGED AFTER  13 CYCLES          *
               *****************************************************


----------------
TOTAL SCF ENERGY
----------------

Total Energy       :         -402.03963884 Eh          -10940.05475 eV

Components:
Nuclear Repulsion  :          478.46460443 Eh           13019.68379 eV
Electronic Energy  :         -880.50424327 Eh          -23959.73855 eV

One Electron Energy:        -1495.05601314 Eh          -40682.54238 eV
Two Electron Energy:          614.55176987 Eh           16722.80383 eV

Virial components:
Potential Energy   :         -803.52012849 Eh          -21864.89429 eV
Kinetic Energy     :          401.48048965 Eh           10924.83953 eV
Virial Ratio       :            2.00139272


---------------
SCF CONVERGENCE
---------------

  Last Energy change         ...   -2.7754e-09  Tolerance :   1.0000e-08
  Last MAX-Density change    ...    7.3433e-06  Tolerance :   1.0000e-07
  Last RMS-Density change    ...    1.3274e-07  Tolerance :   5.0000e-09
  Last Orbital Gradient      ...    2.3884e-06  Tolerance :   1.0000e-05
  Last Orbital Rotation      ...    5.1078e-06  Tolerance :   1.0000e-05

             **** THE GBW FILE WAS UPDATED (dsgdb9nsd_113583.gbw) ****
             **** DENSITY FILE WAS UPDATED (dsgdb9nsd_113583.scfp.tmp) ****
             **** ENERGY FILE WAS UPDATED (dsgdb9nsd_113583.en.tmp) ****
----------------
ORBITAL ENERGIES
----------------

  NO   OCC          E(Eh)            E(eV) 
   0   2.0000     -20.550805      -559.2158 
   1   2.0000     -15.556861      -423.3237 
   2   2.0000     -11.274440      -306.7931 
   3   2.0000     -11.268382      -306.6283 
   4   2.0000     -11.265429      -306.5479 
   5   2.0000     -11.253924      -306.2349 
   6   2.0000     -11.252305      -306.1908 
   7   2.0000     -11.230341      -305.5931 
   8   2.0000     -11.213769      -305.1422 
   9   2.0000      -1.378473       -37.5102 
  10   2.0000      -1.274895       -34.6917 
  11   2.0000      -1.052139       -28.6302 
  12   2.0000      -1.020705       -27.7748 
  13   2.0000      -0.964148       -26.2358 
  14   2.0000      -0.896948       -24.4072 
  15   2.0000      -0.833760       -22.6878 
  16   2.0000      -0.801339       -21.8055 
  17   2.0000      -0.751782       -20.4570 
  18   2.0000      -0.686693       -18.6859 
  19   2.0000      -0.677527       -18.4364 
  20   2.0000      -0.643942       -17.5226 
  21   2.0000      -0.622012       -16.9258 
  22   2.0000      -0.612677       -16.6718 
  23   2.0000      -0.582965       -15.8633 
  24   2.0000      -0.570856       -15.5338 
  25   2.0000      -0.544791       -14.8245 
  26   2.0000      -0.531989       -14.4762 
  27   2.0000      -0.523488       -14.2448 
  28   2.0000      -0.501929       -13.6582 
  29   2.0000      -0.500145       -13.6096 
  30   2.0000      -0.475518       -12.9395 
  31   2.0000      -0.444953       -12.1078 
  32   2.0000      -0.430039       -11.7019 
  33   2.0000      -0.418093       -11.3769 
  34   2.0000      -0.368114       -10.0169 
  35   0.0000       0.132993         3.6189 
  36   0.0000       0.150523         4.0960 
  37   0.0000       0.162109         4.4112 
  38   0.0000       0.174704         4.7539 
  39   0.0000       0.186135         5.0650 
  40   0.0000       0.194228         5.2852 
  41   0.0000       0.199417         5.4264 
  42   0.0000       0.210937         5.7399 
  43   0.0000       0.212821         5.7911 
  44   0.0000       0.219500         5.9729 
  45   0.0000       0.237888         6.4733 
  46   0.0000       0.239724         6.5232 
  47   0.0000       0.247024         6.7219 
  48   0.0000       0.250853         6.8260 
  49   0.0000       0.273078         7.4308 
  50   0.0000       0.275948         7.5089 
  51   0.0000       0.287465         7.8223 
  52   0.0000       0.297389         8.0924 
  53   0.0000       0.308576         8.3968 
  54   0.0000       0.319679         8.6989 
  55   0.0000       0.331515         9.0210 
  56   0.0000       0.335669         9.1340 
  57   0.0000       0.346399         9.4260 
  58   0.0000       0.358405         9.7527 
  59   0.0000       0.385688        10.4951 
  60   0.0000       0.398376        10.8404 
  61   0.0000       0.421143        11.4599 
  62   0.0000       0.425745        11.5851 
  63   0.0000       0.444101        12.0846 
  64   0.0000       0.456715        12.4279 
  65   0.0000       0.468835        12.7576 
  66   0.0000       0.485999        13.2247 
  67   0.0000       0.495177        13.4744 
  68   0.0000       0.498660        13.5692 
  69   0.0000       0.521432        14.1889 
  70   0.0000       0.526907        14.3379 
  71   0.0000       0.543102        14.7785 
  72   0.0000       0.550866        14.9898 
  73   0.0000       0.561385        15.2761 
  74   0.0000       0.563268        15.3273 
  75   0.0000       0.566893        15.4260 
  76   0.0000       0.577580        15.7167 
  77   0.0000       0.590166        16.0592 
  78   0.0000       0.599356        16.3093 
  79   0.0000       0.606603        16.5065 
  80   0.0000       0.619022        16.8444 
  81   0.0000       0.620909        16.8958 
  82   0.0000       0.626351        17.0439 
  83   0.0000       0.633750        17.2452 
  84   0.0000       0.640976        17.4418 
  85   0.0000       0.645628        17.5684 
  86   0.0000       0.656623        17.8676 
  87   0.0000       0.669178        18.2093 
  88   0.0000       0.681100        18.5337 
  89   0.0000       0.685987        18.6667 
  90   0.0000       0.695257        18.9189 
  91   0.0000       0.713255        19.4087 
  92   0.0000       0.721244        19.6261 
  93   0.0000       0.734588        19.9892 
  94   0.0000       0.742413        20.2021 
  95   0.0000       0.766350        20.8535 
  96   0.0000       0.778356        21.1801 
  97   0.0000       0.795440        21.6450 
  98   0.0000       0.818980        22.2856 
  99   0.0000       0.825803        22.4712 
 100   0.0000       0.847228        23.0542 
 101   0.0000       0.862221        23.4622 
 102   0.0000       0.880339        23.9553 
 103   0.0000       0.886383        24.1197 
 104   0.0000       0.918969        25.0064 
 105   0.0000       0.939802        25.5733 
 106   0.0000       0.969626        26.3849 
 107   0.0000       1.003073        27.2950 
 108   0.0000       1.006724        27.3943 
 109   0.0000       1.036350        28.2005 
 110   0.0000       1.061429        28.8830 
 111   0.0000       1.077571        29.3222 
 112   0.0000       1.094363        29.7791 
 113   0.0000       1.119855        30.4728 
 114   0.0000       1.122441        30.5432 
 115   0.0000       1.134002        30.8578 
 116   0.0000       1.164162        31.6785 
 117   0.0000       1.169081        31.8123 
 118   0.0000       1.186827        32.2952 
 119   0.0000       1.201330        32.6898 
 120   0.0000       1.215951        33.0877 
 121   0.0000       1.231551        33.5122 
 122   0.0000       1.252941        34.0943 
 123   0.0000       1.278136        34.7798 
 124   0.0000       1.282748        34.9053 
 125   0.0000       1.302609        35.4458 
 126   0.0000       1.316740        35.8303 
 127   0.0000       1.317003        35.8375 
 128   0.0000       1.337114        36.3847 
 129   0.0000       1.341540        36.5051 
 130   0.0000       1.373494        37.3747 
 131   0.0000       1.375746        37.4359 
 132   0.0000       1.388305        37.7777 
 133   0.0000       1.424717        38.7685 
 134   0.0000       1.437119        39.1060 
 135   0.0000       1.458864        39.6977 
 136   0.0000       1.467714        39.9385 
 137   0.0000       1.539689        41.8971 
 138   0.0000       1.551750        42.2253 
 139   0.0000       1.569922        42.7198 
 140   0.0000       1.593831        43.3704 
 141   0.0000       1.627901        44.2974 
 142   0.0000       1.691366        46.0244 
 143   0.0000       1.718825        46.7716 
 144   0.0000       1.741582        47.3908 
 145   0.0000       1.764161        48.0053 
 146   0.0000       1.773541        48.2605 
 147   0.0000       1.794524        48.8315 
 148   0.0000       1.807850        49.1941 
 149   0.0000       1.823741        49.6265 
 150   0.0000       1.827020        49.7157 
 151   0.0000       1.836987        49.9870 
 152   0.0000       1.846267        50.2395 
 153   0.0000       1.869856        50.8814 
 154   0.0000       1.883988        51.2659 
 155   0.0000       1.887978        51.3745 
 156   0.0000       1.888382        51.3855 
 157   0.0000       1.893676        51.5295 
 158   0.0000       1.901801        51.7506 
 159   0.0000       1.920008        52.2461 
 160   0.0000       1.933173        52.6043 
 161   0.0000       1.958393        53.2906 
 162   0.0000       1.980430        53.8902 
 163   0.0000       2.009367        54.6777 
 164   0.0000       2.039838        55.5068 
 165   0.0000       2.062729        56.1297 
 166   0.0000       2.068856        56.2964 
 167   0.0000       2.090142        56.8757 
 168   0.0000       2.099074        57.1187 
 169   0.0000       2.106884        57.3312 
 170   0.0000       2.138009        58.1782 
 171   0.0000       2.166114        58.9429 
 172   0.0000       2.173569        59.1458 
 173   0.0000       2.185000        59.4569 
 174   0.0000       2.192199        59.6528 
 175   0.0000       2.223399        60.5018 
 176   0.0000       2.242769        61.0288 
 177   0.0000       2.262638        61.5695 
 178   0.0000       2.281842        62.0921 
 179   0.0000       2.295611        62.4668 
 180   0.0000       2.302721        62.6602 
 181   0.0000       2.314596        62.9834 
 182   0.0000       2.348724        63.9120 
 183   0.0000       2.377958        64.7075 
 184   0.0000       2.391226        65.0686 
 185   0.0000       2.430692        66.1425 
 186   0.0000       2.467320        67.1392 
 187   0.0000       2.481264        67.5186 
 188   0.0000       2.493160        67.8423 
 189   0.0000       2.513287        68.3900 
 190   0.0000       2.545513        69.2669 
 191   0.0000       2.572959        70.0138 
 192   0.0000       2.582115        70.2629 
 193   0.0000       2.608380        70.9776 
 194   0.0000       2.618878        71.2633 
 195   0.0000       2.636685        71.7478 
 196   0.0000       2.641453        71.8776 
 197   0.0000       2.662388        72.4473 
 198   0.0000       2.669904        72.6518 
 199   0.0000       2.680780        72.9477 
 200   0.0000       2.698964        73.4426 
 201   0.0000       2.721676        74.0606 
 202   0.0000       2.737355        74.4872 
 203   0.0000       2.761697        75.1496 
 204   0.0000       2.775545        75.5264 
 205   0.0000       2.780750        75.6681 
 206   0.0000       2.784785        75.7778 
 207   0.0000       2.810094        76.4665 
 208   0.0000       2.830194        77.0135 
 209   0.0000       2.840513        77.2943 
 210   0.0000       2.848675        77.5164 
 211   0.0000       2.874991        78.2325 
 212   0.0000       2.884855        78.5009 
 213   0.0000       2.893497        78.7361 
 214   0.0000       2.906876        79.1001 
 215   0.0000       2.921073        79.4864 
 216   0.0000       2.937161        79.9242 
 217   0.0000       2.943651        80.1008 
 218   0.0000       2.953138        80.3590 
 219   0.0000       2.957530        80.4785 
 220   0.0000       2.979937        81.0882 
 221   0.0000       3.008319        81.8605 
 222   0.0000       3.024528        82.3016 
 223   0.0000       3.032250        82.5117 
 224   0.0000       3.066210        83.4358 
 225   0.0000       3.071319        83.5748 
 226   0.0000       3.090973        84.1096 
 227   0.0000       3.121689        84.9455 
 228   0.0000       3.124849        85.0315 
 229   0.0000       3.136466        85.3476 
 230   0.0000       3.177919        86.4756 
 231   0.0000       3.201723        87.1233 
 232   0.0000       3.230125        87.8962 
 233   0.0000       3.244727        88.2935 
 234   0.0000       3.272561        89.0509 
 235   0.0000       3.276729        89.1643 
 236   0.0000       3.321502        90.3827 
 237   0.0000       3.328041        90.5606 
 238   0.0000       3.353107        91.2427 
 239   0.0000       3.371587        91.7456 
 240   0.0000       3.398384        92.4747 
 241   0.0000       3.402706        92.5923 
 242   0.0000       3.416982        92.9808 
 243   0.0000       3.427733        93.2734 
 244   0.0000       3.442346        93.6710 
 245   0.0000       3.465130        94.2910 
 246   0.0000       3.471174        94.4554 
 247   0.0000       3.478456        94.6536 
 248   0.0000       3.492642        95.0396 
 249   0.0000       3.524841        95.9158 
 250   0.0000       3.530731        96.0761 
 251   0.0000       3.542156        96.3870 
 252   0.0000       3.552087        96.6572 
 253   0.0000       3.574264        97.2607 
 254   0.0000       3.589289        97.6695 
 255   0.0000       3.603250        98.0494 
 256   0.0000       3.622293        98.5676 
 257   0.0000       3.633314        98.8675 
 258   0.0000       3.637500        98.9814 
 259   0.0000       3.662247        99.6548 
 260   0.0000       3.688959       100.3817 
 261   0.0000       3.700286       100.6899 
 262   0.0000       3.708263       100.9070 
 263   0.0000       3.720674       101.2447 
 264   0.0000       3.734506       101.6211 
 265   0.0000       3.772472       102.6542 
 266   0.0000       3.775531       102.7374 
 267   0.0000       3.796710       103.3137 
 268   0.0000       3.828435       104.1770 
 269   0.0000       3.843364       104.5832 
 270   0.0000       3.859213       105.0145 
 271   0.0000       3.879756       105.5735 
 272   0.0000       3.885832       105.7389 
 273   0.0000       3.908962       106.3683 
 274   0.0000       3.916536       106.5744 
 275   0.0000       3.929723       106.9332 
 276   0.0000       3.957031       107.6763 
 277   0.0000       3.987510       108.5057 
 278   0.0000       4.017505       109.3219 
 279   0.0000       4.020995       109.4168 
 280   0.0000       4.049603       110.1953 
 281   0.0000       4.075837       110.9092 
 282   0.0000       4.116213       112.0079 
 283   0.0000       4.120218       112.1168 
 284   0.0000       4.132866       112.4610 
 285   0.0000       4.161499       113.2402 
 286   0.0000       4.169490       113.4576 
 287   0.0000       4.207669       114.4965 
 288   0.0000       4.228170       115.0543 
 289   0.0000       4.262416       115.9862 
 290   0.0000       4.275396       116.3394 
 291   0.0000       4.305221       117.1510 
 292   0.0000       4.321500       117.5940 
 293   0.0000       4.338193       118.0482 
 294   0.0000       4.372225       118.9743 
 295   0.0000       4.412545       120.0715 
 296   0.0000       4.422250       120.3355 
 297   0.0000       4.451903       121.1424 
 298   0.0000       4.476805       121.8201 
 299   0.0000       4.533492       123.3626 
 300   0.0000       4.545727       123.6955 
 301   0.0000       4.573967       124.4640 
 302   0.0000       4.603254       125.2609 
 303   0.0000       4.644209       126.3753 
 304   0.0000       4.670743       127.0974 
 305   0.0000       4.697681       127.8304 
 306   0.0000       4.716177       128.3337 
 307   0.0000       4.738797       128.9492 
 308   0.0000       4.790055       130.3440 
 309   0.0000       4.806595       130.7941 
 310   0.0000       4.834464       131.5525 
 311   0.0000       4.886197       132.9602 
 312   0.0000       4.900585       133.3517 
 313   0.0000       4.927836       134.0932 
 314   0.0000       4.952540       134.7655 
 315   0.0000       4.997474       135.9882 
 316   0.0000       5.007325       136.2562 
 317   0.0000       5.102041       138.8336 
 318   0.0000       5.135623       139.7474 
 319   0.0000       5.168586       140.6444 
 320   0.0000       5.212366       141.8357 
 321   0.0000       5.246258       142.7579 
 322   0.0000       5.287289       143.8745 
 323   0.0000       5.371415       146.1636 
 324   0.0000       5.428874       147.7272 
 325   0.0000       5.487477       149.3219 
 326   0.0000       5.557770       151.2346 
 327   0.0000       5.621932       152.9805 
 328   0.0000       5.684238       154.6760 
 329   0.0000       5.725221       155.7912 
 330   0.0000       5.799098       157.8015 
 331   0.0000       5.858685       159.4229 
 332   0.0000       5.894915       160.4088 
 333   0.0000       5.940182       161.6406 
 334   0.0000       6.017033       163.7318 
 335   0.0000       6.117128       166.4555 
 336   0.0000       6.221662       169.3000 
 337   0.0000       6.266778       170.5277 
 338   0.0000       6.280009       170.8877 
 339   0.0000       6.316339       171.8763 
 340   0.0000       6.408596       174.3868 
 341   0.0000       6.650577       180.9714 
 342   0.0000       6.685325       181.9169 
 343   0.0000       7.256504       197.4595 
 344   0.0000       7.329465       199.4449 
 345   0.0000       7.401481       201.4045 
 346   0.0000       7.728033       210.2905 
 347   0.0000       7.789901       211.9740 
 348   0.0000      23.391904       636.5261 
 349   0.0000      23.421149       637.3219 
 350   0.0000      23.561752       641.1479 
 351   0.0000      23.622435       642.7991 
 352   0.0000      23.685519       644.5157 
 353   0.0000      23.709829       645.1773 
 354   0.0000      23.941943       651.4934 
 355   0.0000      33.994295       925.0318 
 356   0.0000      45.692178      1243.3474 

                    ********************************
                    * MULLIKEN POPULATION ANALYSIS *
                    ********************************

-----------------------
MULLIKEN ATOMIC CHARGES
-----------------------
   0 C :   -0.308362
   1 C :   -0.054521
   2 N :   -0.339157
   3 C :   -0.166818
   4 C :    0.169162
   5 C :   -0.165248
   6 C :    0.049858
   7 O :   -0.414468
   8 C :    0.015736
   9 H :    0.100906
  10 H :    0.097008
  11 H :    0.107580
  12 H :    0.069894
  13 H :    0.090952
  14 H :    0.107453
  15 H :    0.103057
  16 H :    0.095670
  17 H :    0.105606
  18 H :    0.096209
  19 H :    0.066423
  20 H :    0.080714
  21 H :    0.092345
Sum of atomic charges:   -0.0000000

--------------------------------
MULLIKEN REDUCED ORBITAL CHARGES
--------------------------------
  0 C s       :     3.221784  s :     3.221784
      pz      :     1.030374  p :     3.007944
      px      :     1.039973
      py      :     0.937597
      dz2     :     0.021386  d :     0.073969
      dxz     :     0.007701
      dyz     :     0.011796
      dx2y2   :     0.011288
      dxy     :     0.021798
      f0      :     0.000914  f :     0.004665
      f+1     :     0.000496
      f-1     :     0.000606
      f+2     :     0.000484
      f-2     :     0.000402
      f+3     :     0.000525
      f-3     :     0.001237
  1 C s       :     3.165021  s :     3.165021
      pz      :     1.006178  p :     2.740662
      px      :     0.807968
      py      :     0.926516
      dz2     :     0.025376  d :     0.139535
      dxz     :     0.026284
      dyz     :     0.018209
      dx2y2   :     0.031683
      dxy     :     0.037983
      f0      :     0.001433  f :     0.009303
      f+1     :     0.000862
      f-1     :     0.000811
      f+2     :     0.000765
      f-2     :     0.001181
      f+3     :     0.002226
      f-3     :     0.002025
  2 N s       :     3.567403  s :     3.567403
      pz      :     1.211465  p :     3.680340
      px      :     1.357999
      py      :     1.110876
      dz2     :     0.020034  d :     0.086286
      dxz     :     0.008072
      dyz     :     0.018866
      dx2y2   :     0.024952
      dxy     :     0.014362
      f0      :     0.000719  f :     0.005128
      f+1     :     0.000451
      f-1     :     0.000723
      f+2     :     0.000860
      f-2     :     0.000425
      f+3     :     0.000729
      f-3     :     0.001222
  3 C s       :     3.217458  s :     3.217458
      pz      :     0.810733  p :     2.830722
      px      :     1.045006
      py      :     0.974983
      dz2     :     0.016631  d :     0.107917
      dxz     :     0.034137
      dyz     :     0.026944
      dx2y2   :     0.020506
      dxy     :     0.009699
      f0      :     0.002262  f :     0.010721
      f+1     :     0.001753
      f-1     :     0.002202
      f+2     :     0.002273
      f-2     :     0.001353
      f+3     :     0.000731
      f-3     :     0.000147
  4 C s       :     3.064654  s :     3.064654
      pz      :     0.933337  p :     2.578527
      px      :     0.916551
      py      :     0.728639
      dz2     :     0.033319  d :     0.172123
      dxz     :     0.026801
      dyz     :     0.034042
      dx2y2   :     0.034197
      dxy     :     0.043765
      f0      :     0.002158  f :     0.015534
      f+1     :     0.001521
      f-1     :     0.002214
      f+2     :     0.002447
      f-2     :     0.002012
      f+3     :     0.002698
      f-3     :     0.002484
  5 C s       :     3.124534  s :     3.124534
      pz      :     1.000206  p :     2.937314
      px      :     0.954934
      py      :     0.982174
      dz2     :     0.020573  d :     0.096766
      dxz     :     0.014049
      dyz     :     0.023964
      dx2y2   :     0.015644
      dxy     :     0.022537
      f0      :     0.000720  f :     0.006634
      f+1     :     0.000719
      f-1     :     0.001467
      f+2     :     0.000536
      f-2     :     0.001202
      f+3     :     0.000585
      f-3     :     0.001404
  6 C s       :     3.158510  s :     3.158510
      pz      :     0.959921  p :     2.641756
      px      :     0.673906
      py      :     1.007929
      dz2     :     0.023569  d :     0.138517
      dxz     :     0.037798
      dyz     :     0.019018
      dx2y2   :     0.026296
      dxy     :     0.031837
      f0      :     0.001487  f :     0.011360
      f+1     :     0.001442
      f-1     :     0.001630
      f+2     :     0.002370
      f-2     :     0.000558
      f+3     :     0.001995
      f-3     :     0.001878
  7 O s       :     3.788255  s :     3.788255
      pz      :     1.808992  p :     4.583051
      px      :     1.308855
      py      :     1.465204
      dz2     :     0.005291  d :     0.041134
      dxz     :     0.004555
      dyz     :     0.005670
      dx2y2   :     0.017362
      dxy     :     0.008256
      f0      :     0.000291  f :     0.002028
      f+1     :     0.000330
      f-1     :     0.000217
      f+2     :     0.000308
      f-2     :     0.000174
      f+3     :     0.000417
      f-3     :     0.000291
  8 C s       :     3.185482  s :     3.185482
      pz      :     0.947278  p :     2.652378
      px      :     0.967094
      py      :     0.738006
      dz2     :     0.016568  d :     0.135008
      dxz     :     0.022246
      dyz     :     0.039471
      dx2y2   :     0.032615
      dxy     :     0.024109
      f0      :     0.000967  f :     0.011396
      f+1     :     0.000774
      f-1     :     0.002305
      f+2     :     0.002167
      f-2     :     0.001675
      f+3     :     0.001859
      f-3     :     0.001649
  9 H s       :     0.877532  s :     0.877532
      pz      :     0.003631  p :     0.021563
      px      :     0.011316
      py      :     0.006615
 10 H s       :     0.881353  s :     0.881353
      pz      :     0.013569  p :     0.021638
      px      :     0.004464
      py      :     0.003605
 11 H s       :     0.870674  s :     0.870674
      pz      :     0.006181  p :     0.021746
      px      :     0.009090
      py      :     0.006474
 12 H s       :     0.908995  s :     0.908995
      pz      :     0.005823  p :     0.021111
      px      :     0.009462
      py      :     0.005826
 13 H s       :     0.887561  s :     0.887561
      pz      :     0.014067  p :     0.021487
      px      :     0.003952
      py      :     0.003468
 14 H s       :     0.869936  s :     0.869936
      pz      :     0.004815  p :     0.022611
      px      :     0.013863
      py      :     0.003933
 15 H s       :     0.874665  s :     0.874665
      pz      :     0.009135  p :     0.022278
      px      :     0.009051
      py      :     0.004093
 16 H s       :     0.881789  s :     0.881789
      pz      :     0.010684  p :     0.022541
      px      :     0.004135
      py      :     0.007722
 17 H s       :     0.871827  s :     0.871827
      pz      :     0.003918  p :     0.022567
      px      :     0.012033
      py      :     0.006615
 18 H s       :     0.882294  s :     0.882294
      pz      :     0.003537  p :     0.021497
      px      :     0.004076
      py      :     0.013884
 19 H s       :     0.912668  s :     0.912668
      pz      :     0.012439  p :     0.020909
      px      :     0.002784
      py      :     0.005685
 20 H s       :     0.897882  s :     0.897882
      pz      :     0.009952  p :     0.021404
      px      :     0.003859
      py      :     0.007593
 21 H s       :     0.886160  s :     0.886160
      pz      :     0.006168  p :     0.021494
      px      :     0.012846
      py      :     0.002480


                     *******************************
                     * LOEWDIN POPULATION ANALYSIS *
                     *******************************

----------------------
LOEWDIN ATOMIC CHARGES
----------------------
   0 C :   -0.283593
   1 C :   -0.296398
   2 N :    0.102058
   3 C :   -0.198763
   4 C :   -0.256666
   5 C :   -0.198123
   6 C :   -0.266840
   7 O :    0.101194
   8 C :   -0.223249
   9 H :    0.109748
  10 H :    0.109965
  11 H :    0.113593
  12 H :    0.110093
  13 H :    0.119729
  14 H :    0.115569
  15 H :    0.117343
  16 H :    0.131436
  17 H :    0.129067
  18 H :    0.115757
  19 H :    0.110803
  20 H :    0.118066
  21 H :    0.119212

-------------------------------
LOEWDIN REDUCED ORBITAL CHARGES
-------------------------------
  0 C s       :     2.832322  s :     2.832322
      pz      :     1.057726  p :     3.151102
      px      :     1.055921
      py      :     1.037455
      dz2     :     0.073005  d :     0.275366
      dxz     :     0.026059
      dyz     :     0.050199
      dx2y2   :     0.042542
      dxy     :     0.083561
      f0      :     0.003040  f :     0.024803
      f+1     :     0.001889
      f-1     :     0.004260
      f+2     :     0.003955
      f-2     :     0.003498
      f+3     :     0.003232
      f-3     :     0.004930
  1 C s       :     2.786619  s :     2.786619
      pz      :     1.028942  p :     2.950891
      px      :     0.920608
      py      :     1.001340
      dz2     :     0.092153  d :     0.503463
      dxz     :     0.090857
      dyz     :     0.066244
      dx2y2   :     0.128520
      dxy     :     0.125688
      f0      :     0.006537  f :     0.055426
      f+1     :     0.004493
      f-1     :     0.005410
      f+2     :     0.005393
      f-2     :     0.008893
      f+3     :     0.014849
      f-3     :     0.009851
  2 N s       :     2.986726  s :     2.986726
      pz      :     1.173735  p :     3.629624
      px      :     1.320779
      py      :     1.135111
      dz2     :     0.049469  d :     0.260802
      dxz     :     0.034704
      dyz     :     0.057207
      dx2y2   :     0.064015
      dxy     :     0.055406
      f0      :     0.004150  f :     0.020788
      f+1     :     0.001691
      f-1     :     0.002373
      f+2     :     0.003883
      f-2     :     0.001766
      f+3     :     0.003928
      f-3     :     0.002997
  3 C s       :     2.780549  s :     2.780549
      pz      :     0.936510  p :     2.927623
      px      :     1.022515
      py      :     0.968597
      dz2     :     0.094992  d :     0.433372
      dxz     :     0.145843
      dyz     :     0.090073
      dx2y2   :     0.067939
      dxy     :     0.034526
      f0      :     0.015343  f :     0.057219
      f+1     :     0.007682
      f-1     :     0.011550
      f+2     :     0.009089
      f-2     :     0.008051
      f+3     :     0.004136
      f-3     :     0.001368
  4 C s       :     2.686144  s :     2.686144
      pz      :     0.975280  p :     2.813070
      px      :     0.983339
      py      :     0.854452
      dz2     :     0.128829  d :     0.671578
      dxz     :     0.113673
      dyz     :     0.129136
      dx2y2   :     0.138793
      dxy     :     0.161146
      f0      :     0.012917  f :     0.085874
      f+1     :     0.009686
      f-1     :     0.009454
      f+2     :     0.015741
      f-2     :     0.009289
      f+3     :     0.016691
      f-3     :     0.012096
  5 C s       :     2.772089  s :     2.772089
      pz      :     1.019256  p :     3.009910
      px      :     0.990458
      py      :     1.000196
      dz2     :     0.080796  d :     0.376816
      dxz     :     0.052028
      dyz     :     0.094945
      dx2y2   :     0.060749
      dxy     :     0.088299
      f0      :     0.005360  f :     0.039307
      f+1     :     0.006232
      f-1     :     0.005412
      f+2     :     0.005329
      f-2     :     0.005374
      f+3     :     0.004492
      f-3     :     0.007108
  6 C s       :     2.795191  s :     2.795191
      pz      :     1.026853  p :     2.856754
      px      :     0.799045
      py      :     1.030856
      dz2     :     0.105437  d :     0.540544
      dxz     :     0.126039
      dyz     :     0.075484
      dx2y2   :     0.112908
      dxy     :     0.120677
      f0      :     0.009657  f :     0.074352
      f+1     :     0.010491
      f-1     :     0.006238
      f+2     :     0.015767
      f-2     :     0.004599
      f+3     :     0.013139
      f-3     :     0.014461
  7 O s       :     3.289319  s :     3.289319
      pz      :     1.678005  p :     4.500300
      px      :     1.343279
      py      :     1.479016
      dz2     :     0.010946  d :     0.102539
      dxz     :     0.015596
      dyz     :     0.013946
      dx2y2   :     0.036841
      dxy     :     0.025210
      f0      :     0.000650  f :     0.006647
      f+1     :     0.000612
      f-1     :     0.000555
      f+2     :     0.001072
      f-2     :     0.000487
      f+3     :     0.001303
      f-3     :     0.001968
  8 C s       :     2.790890  s :     2.790890
      pz      :     0.996889  p :     2.834132
      px      :     0.991838
      py      :     0.845406
      dz2     :     0.065203  d :     0.524353
      dxz     :     0.088778
      dyz     :     0.142287
      dx2y2   :     0.137935
      dxy     :     0.090149
      f0      :     0.007104  f :     0.073875
      f+1     :     0.005305
      f-1     :     0.015054
      f+2     :     0.010447
      f-2     :     0.007646
      f+3     :     0.013928
      f-3     :     0.014390
  9 H s       :     0.830785  s :     0.830785
      pz      :     0.012463  p :     0.059467
      px      :     0.029640
      py      :     0.017364
 10 H s       :     0.830403  s :     0.830403
      pz      :     0.033724  p :     0.059632
      px      :     0.014036
      py      :     0.011872
 11 H s       :     0.826271  s :     0.826271
      pz      :     0.018417  p :     0.060136
      px      :     0.024375
      py      :     0.017343
 12 H s       :     0.833648  s :     0.833648
      pz      :     0.017706  p :     0.056259
      px      :     0.022805
      py      :     0.015748
 13 H s       :     0.824038  s :     0.824038
      pz      :     0.033546  p :     0.056232
      px      :     0.011232
      py      :     0.011454
 14 H s       :     0.824296  s :     0.824296
      pz      :     0.012526  p :     0.060135
      px      :     0.034859
      py      :     0.012750
 15 H s       :     0.822513  s :     0.822513
      pz      :     0.021394  p :     0.060144
      px      :     0.025380
      py      :     0.013370
 16 H s       :     0.809869  s :     0.809869
      pz      :     0.025946  p :     0.058695
      px      :     0.012236
      py      :     0.020513
 17 H s       :     0.811493  s :     0.811493
      pz      :     0.013101  p :     0.059440
      px      :     0.027711
      py      :     0.018628
 18 H s       :     0.827360  s :     0.827360
      pz      :     0.011634  p :     0.056882
      px      :     0.011401
      py      :     0.033846
 19 H s       :     0.833286  s :     0.833286
      pz      :     0.029520  p :     0.055911
      px      :     0.008826
      py      :     0.017566
 20 H s       :     0.825346  s :     0.825346
      pz      :     0.025199  p :     0.056588
      px      :     0.011938
      py      :     0.019451
 21 H s       :     0.823977  s :     0.823977
      pz      :     0.018285  p :     0.056811
      px      :     0.029779
      py      :     0.008747


                      *****************************
                      * MAYER POPULATION ANALYSIS *
                      *****************************

  NA   - Mulliken gross atomic population
  ZA   - Total nuclear charge
  QA   - Mulliken gross atomic charge
  VA   - Mayer's total valence
  BVA  - Mayer's bonded valence
  FA   - Mayer's free valence

  ATOM       NA         ZA         QA         VA         BVA        FA
  0 C      6.3084     6.0000    -0.3084     3.9213     3.9213    -0.0000
  1 C      6.0545     6.0000    -0.0545     3.9285     3.9285    -0.0000
  2 N      7.3392     7.0000    -0.3392     2.7648     2.7648    -0.0000
  3 C      6.1668     6.0000    -0.1668     3.9714     3.9714     0.0000
  4 C      5.8308     6.0000     0.1692     3.7574     3.7574     0.0000
  5 C      6.1652     6.0000    -0.1652     3.8893     3.8893     0.0000
  6 C      5.9501     6.0000     0.0499     3.9809     3.9809     0.0000
  7 O      8.4145     8.0000    -0.4145     1.8459     1.8459     0.0000
  8 C      5.9843     6.0000     0.0157     3.9684     3.9684     0.0000
  9 H      0.8991     1.0000     0.1009     0.9719     0.9719    -0.0000
 10 H      0.9030     1.0000     0.0970     0.9736     0.9736    -0.0000
 11 H      0.8924     1.0000     0.1076     0.9808     0.9808    -0.0000
 12 H      0.9301     1.0000     0.0699     0.9600     0.9600    -0.0000
 13 H      0.9090     1.0000     0.0910     0.9654     0.9654    -0.0000
 14 H      0.8925     1.0000     0.1075     0.9679     0.9679     0.0000
 15 H      0.8969     1.0000     0.1031     0.9707     0.9707     0.0000
 16 H      0.9043     1.0000     0.0957     0.9752     0.9752     0.0000
 17 H      0.8944     1.0000     0.1056     0.9741     0.9741     0.0000
 18 H      0.9038     1.0000     0.0962     0.9664     0.9664     0.0000
 19 H      0.9336     1.0000     0.0664     0.9713     0.9713     0.0000
 20 H      0.9193     1.0000     0.0807     0.9824     0.9824    -0.0000
 21 H      0.9077     1.0000     0.0923     0.9655     0.9655    -0.0000

  Mayer bond orders larger than 0.1
B(  0-C ,  1-C ) :   0.9846 B(  0-C ,  9-H ) :   0.9907 B(  0-C , 10-H ) :   0.9854 
B(  0-C , 11-H ) :   0.9876 B(  1-C ,  2-N ) :   0.9235 B(  1-C , 12-H ) :   0.9861 
B(  1-C , 13-H ) :   0.9812 B(  2-N ,  3-C ) :   0.9761 B(  2-N ,  4-C ) :   0.8749 
B(  3-C ,  4-C ) :   0.9896 B(  3-C , 14-H ) :   0.9579 B(  3-C , 15-H ) :   0.9800 
B(  4-C ,  5-C ) :   0.9478 B(  4-C ,  8-C ) :   0.9681 B(  5-C ,  6-C ) :   1.0229 
B(  5-C , 16-H ) :   0.9810 B(  5-C , 17-H ) :   0.9778 B(  6-C ,  7-O ) :   0.9378 
B(  6-C , 18-H ) :   0.9802 B(  6-C , 19-H ) :   0.9880 B(  7-O ,  8-C ) :   0.9519 
B(  8-C , 20-H ) :   1.0065 B(  8-C , 21-H ) :   0.9729 

-------
TIMINGS
-------

Total SCF time: 0 days 0 hours 4 min 21 sec 

Total time                  ....     261.532 sec
Sum of individual times     ....     268.873 sec  (102.8%)

Fock matrix formation       ....     258.713 sec  ( 98.9%)
Diagonalization             ....       1.315 sec  (  0.5%)
Density matrix formation    ....       0.089 sec  (  0.0%)
Population analysis         ....       0.276 sec  (  0.1%)
Initial guess               ....       5.247 sec  (  2.0%)
Orbital Transformation      ....       0.000 sec  (  0.0%)
Orbital Orthonormalization  ....       0.000 sec  (  0.0%)
DIIS solution               ....       0.431 sec  (  0.2%)
SOSCF solution              ....       0.431 sec  (  0.2%)

   <<< Auxbasis replaced with dsgdb9nsd_113583.AUXC.tmp (Dim=879) >>> 


------------------------------------------------------------------------------
                              ORCA MP2 CALCULATION
------------------------------------------------------------------------------

Freezing NCore=18 chemical core electrons

   <<< Use J-auxbasis for calculation of Separable RI-J derivative contributions dsgdb9nsd_113583.AUXJ.tmp (Dim=913) >>> 


---------------------
RI-MP2 ENERGY+DENSITY
---------------------
Dimension of the basis                    ...  357
Memory devoted to MP2                     ... 2000 MB   
Data format for buffers                   ... DOUBLE
Compression type for matrix containers    ... UNCOMPRESSED
Overall scaling of the MP2 energy         ...   1.000e+00 Eh
Calculating two index integrals           ... done (    0.027 sec)
Cholesky decomposition of V**-1           ... done (    0.240 sec)

-----------------
RI-TRANSFORMATION (AUX index driven)
-----------------

Dimension of the orbital-basis         ... 357
Dimension of the aux-basis             ... 879
Transformation of internal MOs         ...    0-  34
Transformation of internal/external MOs...    0-  34 to   35- 356
Number Format for Storage              ... Double (8 Byte)
Integral mode                          ... Direct

First Phase: integral generation and transformation of MO indices
  Aux angular momentum 0               ... done (    1.622 sec)
  Aux angular momentum 1               ... done (    2.212 sec)
  Aux angular momentum 2               ... done (    2.276 sec)
  Aux angular momentum 3               ... done (    1.615 sec)
  Aux angular momentum 4               ... done (    0.727 sec)
Closing buffer VIJ ( 0.00 GB; CompressionRatio= 1.94)
Closing buffer VIA ( 0.07 GB; CompressionRatio= 1.00)
  Phase 1 completed in     8.559 sec
Second Phase: sorting and transformation of aux index

IJ-Transformation
Memory available                       ... 1985 MB 
Max. # MO pairs treated in a batch     ... 35    
# of internal orbitals                 ... 35
# batches for internal orbitals        ... 1
Closing buffer IJV ( 0.00 GB; CompressionRatio= 1.00)
(ij|v) transformation done in     0.445 sec

IA-Transformation
Memory available                       ... 1985 MB 
Max. # MO pairs treated in a batch     ... 35    
# of internal orbitals                 ... 35
# batches for internal orbitals        ... 1
Closing buffer IAV ( 0.07 GB; CompressionRatio= 1.00)
(ia|v) transformation done in     3.504 sec

  Phase 2 completed in     3.981 sec
RI-Integral transformation completed in    12.541 sec
Opening buffers                              ... done
Frozen core precalculation                   ... done

Starting loop over batches of integrals:

Operator 0  - window                       ... (  9- 34)x( 35-356)
Operator 0  - Memory available             ...  2000 MB
Operator 0  - Memory needed per MO         ...   4.3 MB
Operator 0  - Number of orbitals per batch ... 26
Operator 0  - Number of batches            ... 1

OPERATOR  0   PASS   0:  MOs     9 ...   34
  Reading integrals       ... ok
  Internal MO  11
  Internal MO  14
  Internal MO  17
  Internal MO  20
  Internal MO  23
  Internal MO  26
  Internal MO  29
  Internal MO  32
Time spent in pair loops =    85.974 sec
Deleting buffer (Ka|jb)[aa] ...done

-----------------------------------------------
 RI-MP2 CORRELATION ENERGY:     -1.590262902 Eh
-----------------------------------------------


---------------------
MP2 DENSITY FORMATION
---------------------

Completing the external part of the density      ... done
Storing the unrelaxed density                    ... done

Calculating G(D)                                 ... done
Completing the Lagrangian                        ... done
Solving the Z-vector equations                   ... 

------------------------------------------------------------------------------
                           ORCA CP-SCF CALCULATION
------------------------------------------------------------------------------

Input orbitals are from        ... dsgdb9nsd_113583.gbw
Input Perturbation             ... dsgdb9nsd_113583.pin.tmp
Wavefunction output            ... dsgdb9nsd_113583.pout.tmp
Perturbation mode              ... Real perturbation
Solver                         ... POPLE
Max. number of iterations      ... 128
Convergence tolerance          ... 1.000e-08
Integral handling              ... Direct
Number of perturbations        ... 1
Number of operators            ... 1
Orbital ranges used for CP-SCF:
 Operator 0:  Orbitals   0... 34  to  35...356
Variables per vector in CP-SCF ... 11270
Number of vectors sought       ... 1
     CP-SCF ITERATION   0: 
     CP-SCF ITERATION   1:      0.000746250
     CP-SCF ITERATION   2:      0.000111470
     CP-SCF ITERATION   3:      0.000007750
     CP-SCF ITERATION   4:      0.000000553
     CP-SCF ITERATION   5:      0.000000056
     CP-SCF ITERATION   6:      0.000000006
done
Finalizing the relaxed density                   ... done
Transforming P to the AO basis                   ... done
Storing the relaxed density                      ... done

                *********************************************
                * UNRELAXED MP2 DENSITY POPULATION ANALYSIS *
                *********************************************

------------------------------------------------------------------------------
                           ORCA POPULATION ANALYSIS
------------------------------------------------------------------------------
Input electron density              ... dsgdb9nsd_113583.pmp2ur
BaseName (.gbw .S,...)              ... dsgdb9nsd_113583

                    ********************************
                    * MULLIKEN POPULATION ANALYSIS *
                    ********************************

-----------------------
MULLIKEN ATOMIC CHARGES
-----------------------
   0 C :   -0.316840
   1 C :   -0.067091
   2 N :   -0.325657
   3 C :   -0.177776
   4 C :    0.163685
   5 C :   -0.174012
   6 C :    0.034625
   7 O :   -0.395785
   8 C :    0.000195
   9 H :    0.104171
  10 H :    0.100229
  11 H :    0.110615
  12 H :    0.073242
  13 H :    0.094884
  14 H :    0.111129
  15 H :    0.106277
  16 H :    0.099682
  17 H :    0.109252
  18 H :    0.099711
  19 H :    0.069674
  20 H :    0.083888
  21 H :    0.095902
Sum of atomic charges:   -0.0000000

--------------------------------
MULLIKEN REDUCED ORBITAL CHARGES
--------------------------------
  0 C s       :     3.218495  s :     3.218495
      pz      :     1.024732  p :     2.990488
      px      :     1.034575
      py      :     0.931182
      dz2     :     0.026265  d :     0.099505
      dxz     :     0.013423
      dyz     :     0.016903
      dx2y2   :     0.015979
      dxy     :     0.026936
      f0      :     0.001411  f :     0.008352
      f+1     :     0.001009
      f-1     :     0.001184
      f+2     :     0.000987
      f-2     :     0.000940
      f+3     :     0.001113
      f-3     :     0.001709
  1 C s       :     3.163227  s :     3.163227
      pz      :     1.001402  p :     2.729183
      px      :     0.805931
      py      :     0.921851
      dz2     :     0.029969  d :     0.161634
      dxz     :     0.031061
      dyz     :     0.023490
      dx2y2   :     0.035611
      dxy     :     0.041502
      f0      :     0.001933  f :     0.013046
      f+1     :     0.001375
      f-1     :     0.001403
      f+2     :     0.001311
      f-2     :     0.001722
      f+3     :     0.002821
      f-3     :     0.002481
  2 N s       :     3.560130  s :     3.560130
      pz      :     1.199267  p :     3.640790
      px      :     1.341928
      py      :     1.099594
      dz2     :     0.025450  d :     0.116174
      dxz     :     0.014588
      dyz     :     0.024629
      dx2y2   :     0.030450
      dxy     :     0.021056
      f0      :     0.001201  f :     0.008564
      f+1     :     0.000916
      f-1     :     0.001189
      f+2     :     0.001350
      f-2     :     0.000914
      f+3     :     0.001282
      f-3     :     0.001713
  3 C s       :     3.215953  s :     3.215953
      pz      :     0.807990  p :     2.817899
      px      :     1.040051
      py      :     0.969859
      dz2     :     0.020734  d :     0.129562
      dxz     :     0.038688
      dyz     :     0.029713
      dx2y2   :     0.025114
      dxy     :     0.015312
      f0      :     0.002807  f :     0.014362
      f+1     :     0.002371
      f-1     :     0.002626
      f+2     :     0.002746
      f-2     :     0.001935
      f+3     :     0.001199
      f-3     :     0.000677
  4 C s       :     3.062725  s :     3.062725
      pz      :     0.926409  p :     2.561470
      px      :     0.910421
      py      :     0.724640
      dz2     :     0.036976  d :     0.192490
      dxz     :     0.031513
      dyz     :     0.039098
      dx2y2   :     0.037609
      dxy     :     0.047294
      f0      :     0.002726  f :     0.019630
      f+1     :     0.002151
      f-1     :     0.002734
      f+2     :     0.003026
      f-2     :     0.002613
      f+3     :     0.003400
      f-3     :     0.002980
  5 C s       :     3.122400  s :     3.122400
      pz      :     0.994185  p :     2.919020
      px      :     0.949001
      py      :     0.975834
      dz2     :     0.025589  d :     0.122066
      dxz     :     0.019702
      dyz     :     0.028386
      dx2y2   :     0.021668
      dxy     :     0.026722
      f0      :     0.001325  f :     0.010526
      f+1     :     0.001258
      f-1     :     0.001958
      f+2     :     0.001115
      f-2     :     0.001776
      f+3     :     0.001196
      f-3     :     0.001898
  6 C s       :     3.156424  s :     3.156424
      pz      :     0.954709  p :     2.635000
      px      :     0.677330
      py      :     1.002962
      dz2     :     0.027655  d :     0.158990
      dxz     :     0.042115
      dyz     :     0.023194
      dx2y2   :     0.029665
      dxy     :     0.036362
      f0      :     0.002074  f :     0.014960
      f+1     :     0.001931
      f-1     :     0.002097
      f+2     :     0.002906
      f-2     :     0.001122
      f+3     :     0.002395
      f-3     :     0.002435
  7 O s       :     3.782414  s :     3.782414
      pz      :     1.792130  p :     4.538641
      px      :     1.295999
      py      :     1.450513
      dz2     :     0.011180  d :     0.069891
      dxz     :     0.010587
      dyz     :     0.011517
      dx2y2   :     0.022606
      dxy     :     0.014001
      f0      :     0.000680  f :     0.004839
      f+1     :     0.000715
      f-1     :     0.000613
      f+2     :     0.000717
      f-2     :     0.000568
      f+3     :     0.000832
      f-3     :     0.000714
  8 C s       :     3.183948  s :     3.183948
      pz      :     0.943209  p :     2.645263
      px      :     0.962322
      py      :     0.739731
      dz2     :     0.021729  d :     0.155596
      dxz     :     0.026210
      dyz     :     0.043005
      dx2y2   :     0.036525
      dxy     :     0.028127
      f0      :     0.001459  f :     0.014998
      f+1     :     0.001355
      f-1     :     0.002785
      f+2     :     0.002664
      f-2     :     0.002195
      f+3     :     0.002353
      f-3     :     0.002188
  9 H s       :     0.871129  s :     0.871129
      pz      :     0.004749  p :     0.024700
      px      :     0.012269
      py      :     0.007682
 10 H s       :     0.874980  s :     0.874980
      pz      :     0.014477  p :     0.024791
      px      :     0.005568
      py      :     0.004746
 11 H s       :     0.864549  s :     0.864549
      pz      :     0.007229  p :     0.024836
      px      :     0.010068
      py      :     0.007539
 12 H s       :     0.902299  s :     0.902299
      pz      :     0.006961  p :     0.024458
      px      :     0.010516
      py      :     0.006981
 13 H s       :     0.880411  s :     0.880411
      pz      :     0.014966  p :     0.024705
      px      :     0.005124
      py      :     0.004614
 14 H s       :     0.863181  s :     0.863181
      pz      :     0.005900  p :     0.025690
      px      :     0.014700
      py      :     0.005090
 15 H s       :     0.868299  s :     0.868299
      pz      :     0.010102  p :     0.025424
      px      :     0.010051
      py      :     0.005271
 16 H s       :     0.874685  s :     0.874685
      pz      :     0.011639  p :     0.025634
      px      :     0.005244
      py      :     0.008751
 17 H s       :     0.865049  s :     0.865049
      pz      :     0.005054  p :     0.025699
      px      :     0.012943
      py      :     0.007702
 18 H s       :     0.875683  s :     0.875683
      pz      :     0.004660  p :     0.024606
      px      :     0.005215
      py      :     0.014731
 19 H s       :     0.906195  s :     0.906195
      pz      :     0.013353  p :     0.024131
      px      :     0.003976
      py      :     0.006802
 20 H s       :     0.891570  s :     0.891570
      pz      :     0.010915  p :     0.024542
      px      :     0.004982
      py      :     0.008645
 21 H s       :     0.879494  s :     0.879494
      pz      :     0.007239  p :     0.024604
      px      :     0.013728
      py      :     0.003637


                     *******************************
                     * LOEWDIN POPULATION ANALYSIS *
                     *******************************

----------------------
LOEWDIN ATOMIC CHARGES
----------------------
   0 C :   -0.289650
   1 C :   -0.300371
   2 N :    0.108104
   3 C :   -0.205147
   4 C :   -0.257944
   5 C :   -0.203480
   6 C :   -0.275153
   7 O :    0.113884
   8 C :   -0.232375
   9 H :    0.111597
  10 H :    0.111822
  11 H :    0.115438
  12 H :    0.111494
  13 H :    0.121459
  14 H :    0.117485
  15 H :    0.119034
  16 H :    0.133153
  17 H :    0.130781
  18 H :    0.117474
  19 H :    0.112142
  20 H :    0.119359
  21 H :    0.120893

-------------------------------
LOEWDIN REDUCED ORBITAL CHARGES
-------------------------------
  0 C s       :     2.830442  s :     2.830442
      pz      :     1.050117  p :     3.126949
      px      :     1.048615
      py      :     1.028217
      dz2     :     0.078118  d :     0.302112
      dxz     :     0.031783
      dyz     :     0.055538
      dx2y2   :     0.048291
      dxy     :     0.088382
      f0      :     0.003890  f :     0.030148
      f+1     :     0.002609
      f-1     :     0.004959
      f+2     :     0.004682
      f-2     :     0.004201
      f+3     :     0.003944
      f-3     :     0.005863
  1 C s       :     2.785246  s :     2.785246
      pz      :     1.021628  p :     2.929263
      px      :     0.914845
      py      :     0.992789
      dz2     :     0.096948  d :     0.524527
      dxz     :     0.094784
      dyz     :     0.071252
      dx2y2   :     0.132285
      dxy     :     0.129258
      f0      :     0.007401  f :     0.061335
      f+1     :     0.005387
      f-1     :     0.006177
      f+2     :     0.006207
      f-2     :     0.009583
      f+3     :     0.015489
      f-3     :     0.011091
  2 N s       :     2.984086  s :     2.984086
      pz      :     1.161467  p :     3.590184
      px      :     1.305553
      py      :     1.123164
      dz2     :     0.056111  d :     0.292317
      dxz     :     0.040694
      dyz     :     0.063034
      dx2y2   :     0.070624
      dxy     :     0.061854
      f0      :     0.004665  f :     0.025309
      f+1     :     0.002286
      f-1     :     0.003188
      f+2     :     0.004424
      f-2     :     0.002347
      f+3     :     0.004565
      f-3     :     0.003834
  3 C s       :     2.779428  s :     2.779428
      pz      :     0.929284  p :     2.905489
      px      :     1.015466
      py      :     0.960738
      dz2     :     0.099230  d :     0.457271
      dxz     :     0.149315
      dyz     :     0.096292
      dx2y2   :     0.072589
      dxy     :     0.039845
      f0      :     0.015836  f :     0.062959
      f+1     :     0.008554
      f-1     :     0.012893
      f+2     :     0.010073
      f-2     :     0.008857
      f+3     :     0.004763
      f-3     :     0.001983
  4 C s       :     2.685206  s :     2.685206
      pz      :     0.965942  p :     2.788565
      px      :     0.973736
      py      :     0.848887
      dz2     :     0.133336  d :     0.691381
      dxz     :     0.118078
      dyz     :     0.132746
      dx2y2   :     0.142927
      dxy     :     0.164295
      f0      :     0.013730  f :     0.092792
      f+1     :     0.010605
      f-1     :     0.010830
      f+2     :     0.016288
      f-2     :     0.010316
      f+3     :     0.017515
      f-3     :     0.013509
  5 C s       :     2.770580  s :     2.770580
      pz      :     1.010468  p :     2.983574
      px      :     0.981828
      py      :     0.991278
      dz2     :     0.085873  d :     0.404009
      dxz     :     0.057708
      dyz     :     0.100065
      dx2y2   :     0.066114
      dxy     :     0.094249
      f0      :     0.006121  f :     0.045317
      f+1     :     0.007021
      f-1     :     0.006439
      f+2     :     0.006073
      f-2     :     0.006308
      f+3     :     0.005300
      f-3     :     0.008055
  6 C s       :     2.794180  s :     2.794180
      pz      :     1.019080  p :     2.840789
      px      :     0.798170
      py      :     1.023538
      dz2     :     0.109616  d :     0.560405
      dxz     :     0.129390
      dyz     :     0.080638
      dx2y2   :     0.116828
      dxy     :     0.123933
      f0      :     0.010319  f :     0.079780
      f+1     :     0.011367
      f-1     :     0.007245
      f+2     :     0.016307
      f-2     :     0.005397
      f+3     :     0.014132
      f-3     :     0.015013
  7 O s       :     3.286397  s :     3.286397
      pz      :     1.662439  p :     4.456929
      px      :     1.329995
      py      :     1.464495
      dz2     :     0.017403  d :     0.132977
      dxz     :     0.021466
      dyz     :     0.020092
      dx2y2   :     0.043178
      dxy     :     0.030837
      f0      :     0.001077  f :     0.009813
      f+1     :     0.001054
      f-1     :     0.000976
      f+2     :     0.001528
      f-2     :     0.000912
      f+3     :     0.001833
      f-3     :     0.002435
  8 C s       :     2.789984  s :     2.789984
      pz      :     0.990345  p :     2.818045
      px      :     0.984514
      py      :     0.843186
      dz2     :     0.069884  d :     0.544943
      dxz     :     0.093635
      dyz     :     0.145816
      dx2y2   :     0.141517
      dxy     :     0.094091
      f0      :     0.007843  f :     0.079403
      f+1     :     0.006035
      f-1     :     0.015654
      f+2     :     0.011496
      f-2     :     0.008611
      f+3     :     0.014692
      f-3     :     0.015072
  9 H s       :     0.823667  s :     0.823667
      pz      :     0.013742  p :     0.064735
      px      :     0.031945
      py      :     0.019048
 10 H s       :     0.823248  s :     0.823248
      pz      :     0.036324  p :     0.064930
      px      :     0.015414
      py      :     0.013192
[...]
  5 C s       :     3.151422  s :     3.151422
      pz      :     1.007336  p :     2.958700
      px      :     0.965435
      py      :     0.985929
      dz2     :     0.023796  d :     0.110794
      dxz     :     0.019165
      dyz     :     0.023872
      dx2y2   :     0.021756
      dxy     :     0.022206
      f0      :     0.001323  f :     0.010003
      f+1     :     0.001182
      f-1     :     0.001760
      f+2     :     0.001097
      f-2     :     0.001687
      f+3     :     0.001196
      f-3     :     0.001758
  6 C s       :     3.172552  s :     3.172552
      pz      :     0.976608  p :     2.691643
      px      :     0.693293
      py      :     1.021742
      dz2     :     0.025898  d :     0.152292
      dxz     :     0.042936
      dyz     :     0.020758
      dx2y2   :     0.026610
      dxy     :     0.036090
      f0      :     0.002049  f :     0.014279
      f+1     :     0.001848
      f-1     :     0.001906
      f+2     :     0.002797
      f-2     :     0.001065
      f+3     :     0.002227
      f-3     :     0.002388
  7 O s       :     3.777775  s :     3.777775
      pz      :     1.754322  p :     4.464868
      px      :     1.278323
      py      :     1.432223
      dz2     :     0.010985  d :     0.068447
      dxz     :     0.011110
      dyz     :     0.011528
      dx2y2   :     0.020647
      dxy     :     0.014177
      f0      :     0.000677  f :     0.004811
      f+1     :     0.000703
      f-1     :     0.000618
      f+2     :     0.000718
      f-2     :     0.000567
      f+3     :     0.000802
      f-3     :     0.000725
  8 C s       :     3.193134  s :     3.193134
      pz      :     0.966501  p :     2.704487
      px      :     0.980024
      py      :     0.757961
      dz2     :     0.023152  d :     0.147406
      dxz     :     0.022651
      dyz     :     0.040019
      dx2y2   :     0.035396
      dxy     :     0.026188
      f0      :     0.001396  f :     0.014268
      f+1     :     0.001345
      f-1     :     0.002593
      f+2     :     0.002508
      f-2     :     0.002063
      f+3     :     0.002242
      f-3     :     0.002121
  9 H s       :     0.850110  s :     0.850110
      pz      :     0.005021  p :     0.023799
      px      :     0.011280
      py      :     0.007498
 10 H s       :     0.851848  s :     0.851848
      pz      :     0.013146  p :     0.023814
      px      :     0.005699
      py      :     0.004970
 11 H s       :     0.843887  s :     0.843887
      pz      :     0.007037  p :     0.023821
      px      :     0.009471
      py      :     0.007312
 12 H s       :     0.882563  s :     0.882563
      pz      :     0.006783  p :     0.023519
      px      :     0.009889
      py      :     0.006847
 13 H s       :     0.857100  s :     0.857100
      pz      :     0.013553  p :     0.023606
      px      :     0.005219
      py      :     0.004834
 14 H s       :     0.849237  s :     0.849237
      pz      :     0.005881  p :     0.024683
      px      :     0.013417
      py      :     0.005385
 15 H s       :     0.857891  s :     0.857891
      pz      :     0.009537  p :     0.024513
      px      :     0.009378
      py      :     0.005598
 16 H s       :     0.853213  s :     0.853213
      pz      :     0.010800  p :     0.024581
      px      :     0.005437
      py      :     0.008344
 17 H s       :     0.848065  s :     0.848065
      pz      :     0.005281  p :     0.024786
      px      :     0.011941
      py      :     0.007564
 18 H s       :     0.857588  s :     0.857588
      pz      :     0.004909  p :     0.023452
      px      :     0.005164
      py      :     0.013379
 19 H s       :     0.891706  s :     0.891706
      pz      :     0.012207  p :     0.023037
      px      :     0.004173
      py      :     0.006657
 20 H s       :     0.880419  s :     0.880419
      pz      :     0.010114  p :     0.023395
      px      :     0.005126
      py      :     0.008155
 21 H s       :     0.862397  s :     0.862397
      pz      :     0.007036  p :     0.023454
      px      :     0.012595
      py      :     0.003823


                     *******************************
                     * LOEWDIN POPULATION ANALYSIS *
                     *******************************

----------------------
LOEWDIN ATOMIC CHARGES
----------------------
   0 C :   -0.315196
   1 C :   -0.322537
   2 N :    0.129458
   3 C :   -0.225602
   4 C :   -0.273747
   5 C :   -0.225532
   6 C :   -0.304558
   7 O :    0.148948
   8 C :   -0.262916
   9 H :    0.121583
  10 H :    0.121382
  11 H :    0.124273
  12 H :    0.119301
  13 H :    0.131320
  14 H :    0.125520
  15 H :    0.125789
  16 H :    0.142607
  17 H :    0.140039
  18 H :    0.125909
  19 H :    0.119006
  20 H :    0.125660
  21 H :    0.129291

-------------------------------
LOEWDIN REDUCED ORBITAL CHARGES
-------------------------------
  0 C s       :     2.835547  s :     2.835547
      pz      :     1.064374  p :     3.161893
      px      :     1.063727
      py      :     1.033792
      dz2     :     0.073554  d :     0.287942
      dxz     :     0.029544
      dyz     :     0.054328
      dx2y2   :     0.045692
      dxy     :     0.084824
      f0      :     0.003765  f :     0.029814
      f+1     :     0.002521
      f-1     :     0.004997
      f+2     :     0.004701
      f-2     :     0.004155
      f+3     :     0.003937
      f-3     :     0.005737
  1 C s       :     2.792630  s :     2.792630
      pz      :     1.036081  p :     2.956383
      px      :     0.921224
      py      :     0.999078
      dz2     :     0.092975  d :     0.513291
      dxz     :     0.092188
      dyz     :     0.070444
      dx2y2   :     0.130881
      dxy     :     0.126803
      f0      :     0.007112  f :     0.060233
      f+1     :     0.005249
      f-1     :     0.006172
      f+2     :     0.006193
      f-2     :     0.009403
      f+3     :     0.015066
      f-3     :     0.011039
  2 N s       :     2.991372  s :     2.991372
      pz      :     1.156791  p :     3.559927
      px      :     1.289475
      py      :     1.113662
      dz2     :     0.055014  d :     0.293779
      dxz     :     0.041984
      dyz     :     0.063310
      dx2y2   :     0.070677
      dxy     :     0.062794
      f0      :     0.004599  f :     0.025464
      f+1     :     0.002316
      f-1     :     0.003240
      f+2     :     0.004379
      f-2     :     0.002409
      f+3     :     0.004658
      f-3     :     0.003864
  3 C s       :     2.787861  s :     2.787861
      pz      :     0.930792  p :     2.926711
      px      :     1.027662
      py      :     0.968256
      dz2     :     0.099056  d :     0.449339
      dxz     :     0.147938
      dyz     :     0.093140
      dx2y2   :     0.068416
      dxy     :     0.040788
      f0      :     0.015279  f :     0.061691
      f+1     :     0.008333
      f-1     :     0.013234
      f+2     :     0.009667
      f-2     :     0.008596
      f+3     :     0.004650
      f-3     :     0.001932
  4 C s       :     2.693213  s :     2.693213
      pz      :     0.970408  p :     2.798020
      px      :     0.975388
      py      :     0.852225
      dz2     :     0.130962  d :     0.690817
      dxz     :     0.119058
      dyz     :     0.133052
      dx2y2   :     0.142890
      dxy     :     0.164855
      f0      :     0.013245  f :     0.091698
      f+1     :     0.010606
      f-1     :     0.010968
      f+2     :     0.015757
      f-2     :     0.010463
      f+3     :     0.017278
      f-3     :     0.013381
  5 C s       :     2.777493  s :     2.777493
      pz      :     1.020054  p :     3.008104
      px      :     0.989011
      py      :     0.999039
      dz2     :     0.083787  d :     0.394839
      dxz     :     0.058106
      dyz     :     0.095616
      dx2y2   :     0.066282
      dxy     :     0.091047
      f0      :     0.006133  f :     0.045096
      f+1     :     0.007039
      f-1     :     0.006209
      f+2     :     0.006082
      f-2     :     0.006321
      f+3     :     0.005404
      f-3     :     0.007908
  6 C s       :     2.802001  s :     2.802001
      pz      :     1.028680  p :     2.869853
      px      :     0.806774
      py      :     1.034399
      dz2     :     0.107483  d :     0.554569
      dxz     :     0.131421
      dyz     :     0.078543
      dx2y2   :     0.113989
      dxy     :     0.123133
      f0      :     0.010116  f :     0.078134
      f+1     :     0.011327
      f-1     :     0.007021
      f+2     :     0.015904
      f-2     :     0.005296
      f+3     :     0.013904
      f-3     :     0.014566
  7 O s       :     3.291185  s :     3.291185
      pz      :     1.640947  p :     4.415225
      px      :     1.322811
      py      :     1.451468
      dz2     :     0.017648  d :     0.134603
      dxz     :     0.022248
      dyz     :     0.020365
      dx2y2   :     0.042840
      dxy     :     0.031502
      f0      :     0.001088  f :     0.010039
      f+1     :     0.001072
      f-1     :     0.000997
      f+2     :     0.001565
      f-2     :     0.000924
      f+3     :     0.001898
      f-3     :     0.002495
  8 C s       :     2.798808  s :     2.798808
      pz      :     1.002087  p :     2.847625
      px      :     0.992121
      py      :     0.853418
      dz2     :     0.070169  d :     0.538841
      dxz     :     0.090375
      dyz     :     0.145087
      dx2y2   :     0.140268
      dxy     :     0.092942
      f0      :     0.007722  f :     0.077641
      f+1     :     0.006040
      f-1     :     0.015062
      f+2     :     0.011137
      f-2     :     0.008394
      f+3     :     0.014455
      f-3     :     0.014830
  9 H s       :     0.812528  s :     0.812528
      pz      :     0.014366  p :     0.065888
      px      :     0.032003
      py      :     0.019519
 10 H s       :     0.812666  s :     0.812666
      pz      :     0.036257  p :     0.065952
      px      :     0.015964
      py      :     0.013731
 11 H s       :     0.809434  s :     0.809434
      pz      :     0.020359  p :     0.066294
      px      :     0.026514
      py      :     0.019421
 12 H s       :     0.816745  s :     0.816745
      pz      :     0.019902  p :     0.063954
      px      :     0.026000
      py      :     0.018052
 13 H s       :     0.805693  s :     0.805693
      pz      :     0.036192  p :     0.062987
      px      :     0.013322
      py      :     0.013473
 14 H s       :     0.808103  s :     0.808103
      pz      :     0.014621  p :     0.066377
      px      :     0.036986
      py      :     0.014770
 15 H s       :     0.807325  s :     0.807325
      pz      :     0.023885  p :     0.066886
      px      :     0.027492
      py      :     0.015509
 16 H s       :     0.791896  s :     0.791896
      pz      :     0.028413  p :     0.065497
      px      :     0.014302
      py      :     0.022781
 17 H s       :     0.793606  s :     0.793606
      pz      :     0.015168  p :     0.066355
      px      :     0.030261
      py      :     0.020926
 18 H s       :     0.811049  s :     0.811049
      pz      :     0.013479  p :     0.063042
      px      :     0.013551
      py      :     0.036012
 19 H s       :     0.818220  s :     0.818220
      pz      :     0.031993  p :     0.062775
      px      :     0.011152
      py      :     0.019629
 20 H s       :     0.810964  s :     0.810964
      pz      :     0.027493  p :     0.063375
      px      :     0.013899
      py      :     0.021984
 21 H s       :     0.807592  s :     0.807592
      pz      :     0.020260  p :     0.063117
      px      :     0.032186
      py      :     0.010671


                      *****************************
                      * MAYER POPULATION ANALYSIS *
                      *****************************

  NA   - Mulliken gross atomic population
  ZA   - Total nuclear charge
  QA   - Mulliken gross atomic charge
  VA   - Mayer's total valence
  BVA  - Mayer's bonded valence
  FA   - Mayer's free valence

  ATOM       NA         ZA         QA         VA         BVA        FA
  0 C      6.3760     6.0000    -0.3760     4.0126     3.7185     0.2941
  1 C      6.1372     6.0000    -0.1372     4.0339     3.7208     0.3131
  2 N      7.2546     7.0000    -0.2546     3.0610     2.6295     0.4315
  3 C      6.2158     6.0000    -0.2158     4.0835     3.7510     0.3325
  4 C      5.8831     6.0000     0.1169     3.8690     3.5186     0.3505
  5 C      6.2309     6.0000    -0.2309     3.9870     3.6675     0.3195
  6 C      6.0308     6.0000    -0.0308     4.1040     3.8044     0.2996
  7 O      8.3159     8.0000    -0.3159     2.2733     1.8576     0.4157
  8 C      6.0593     6.0000    -0.0593     4.0948     3.7902     0.3046
  9 H      0.8739     1.0000     0.1261     0.9764     0.9273     0.0491
 10 H      0.8757     1.0000     0.1243     0.9773     0.9278     0.0495
 11 H      0.8677     1.0000     0.1323     0.9867     0.9381     0.0486
 12 H      0.9061     1.0000     0.0939     0.9677     0.9153     0.0524
 13 H      0.8807     1.0000     0.1193     0.9647     0.9148     0.0499
 14 H      0.8739     1.0000     0.1261     0.9673     0.9185     0.0489
 15 H      0.8824     1.0000     0.1176     0.9783     0.9280     0.0503
 16 H      0.8778     1.0000     0.1222     0.9744     0.9246     0.0497
 17 H      0.8729     1.0000     0.1271     0.9775     0.9275     0.0500
 18 H      0.8810     1.0000     0.1190     0.9646     0.9161     0.0485
 19 H      0.9147     1.0000     0.0853     0.9709     0.9197     0.0512
 20 H      0.9038     1.0000     0.0962     0.9858     0.9347     0.0512
 21 H      0.8859     1.0000     0.1141     0.9639     0.9145     0.0494

  Mayer bond orders larger than 0.1
B(  0-C ,  1-C ) :   0.9356 B(  0-C ,  9-H ) :   0.9379 B(  0-C , 10-H ) :   0.9358 
B(  0-C , 11-H ) :   0.9373 B(  1-C ,  2-N ) :   0.8807 B(  1-C , 12-H ) :   0.9225 
B(  1-C , 13-H ) :   0.9267 B(  2-N ,  3-C ) :   0.9390 B(  2-N ,  4-C ) :   0.7861 
B(  3-C ,  4-C ) :   0.9085 B(  3-C , 14-H ) :   0.9055 B(  3-C , 15-H ) :   0.9239 
B(  4-C ,  5-C ) :   0.9102 B(  4-C ,  8-C ) :   0.9188 B(  5-C ,  6-C ) :   0.9659 
B(  5-C , 16-H ) :   0.9215 B(  5-C , 17-H ) :   0.9169 B(  6-C ,  7-O ) :   0.9341 
B(  6-C , 18-H ) :   0.9270 B(  6-C , 19-H ) :   0.9278 B(  7-O ,  8-C ) :   0.9518 
B(  8-C , 20-H ) :   0.9429 B(  8-C , 21-H ) :   0.9155 


-------
TIMINGS
-------

Total time                : 1508.075 sec
Integral trafo            :   12.552 sec (  0.8%)
FC preparation            :    8.466 sec (  0.6%)
I/O of integrals          :    0.069 sec (  0.0%)
K(i,j) Operators          :   23.582 sec (  1.6%)
T(i,j) pair energies      :    1.144 sec (  0.1%)
V-calculation             :    0.027 sec (  0.0%)
V**(-1/2)                 :    0.240 sec (  0.0%)
Gamma(ia|P)               :   23.135 sec (  1.5%)
Gamma-Trafo               :    3.462 sec (  0.2%)
D(virtual)                :    8.801 sec (  0.6%)
D(internal)               :    4.568 sec (  0.3%)
W(virtual)                :    0.000 sec (  0.0%)
W(internal)               :    0.000 sec (  0.0%)
L(virtual)                :   20.586 sec (  1.4%)
L(internal)               :    0.258 sec (  0.0%)
G(D)                      :  186.865 sec ( 12.4%)
G(Z)                      :    0.000 sec (  0.0%)
Z-Vector Solution         : 1213.262 sec ( 80.5%)
3-Index Derivative        :    0.000 sec (  0.0%)
2-Index Derivative        :    0.000 sec (  0.0%)
Separable Gradient (RIJ)  :    0.000 sec (  0.0%)
Separable Gradient (X)    :    0.000 sec (  0.0%)


---------------------------------------
MP2 TOTAL ENERGY:     -403.629901743 Eh
---------------------------------------

-------------------------   --------------------
FINAL SINGLE POINT ENERGY      -403.629901742643
-------------------------   --------------------


                            ***************************************
                            *     ORCA property calculations      *
                            ***************************************

                                    ---------------------
                                    Active property flags
                                    ---------------------
   (+) Dipole Moment


------------------------------------------------------------------------------
                       ORCA ELECTRIC PROPERTIES CALCULATION
------------------------------------------------------------------------------

Dipole Moment Calculation                       ... on
Quadrupole Moment Calculation                   ... off
Polarizability Calculation                      ... off
GBWName                                         ... dsgdb9nsd_113583.gbw
Electron density file                           ... dsgdb9nsd_113583.scfp.tmp

-------------
DIPOLE MOMENT
-------------
                                X             Y             Z
Electronic contribution:     -3.98297      -5.76411       2.02913
Nuclear contribution   :      4.76678       5.99468      -2.41239
                        -----------------------------------------
Total Dipole Moment    :      0.78381       0.23058      -0.38326
                        -----------------------------------------
Magnitude (a.u.)       :      0.90245
Magnitude (Debye)      :      2.29385


                         *** MP2 UNRELAXED DENSITY ***

------------------------------------------------------------------------------
                       ORCA ELECTRIC PROPERTIES CALCULATION
------------------------------------------------------------------------------

Dipole Moment Calculation                       ... on
Quadrupole Moment Calculation                   ... off
Polarizability Calculation                      ... off
GBWName                                         ... dsgdb9nsd_113583.gbw
Electron density file                           ... dsgdb9nsd_113583.pmp2ur

-------------
DIPOLE MOMENT
-------------
                                X             Y             Z
Electronic contribution:     -4.00190      -5.76905       2.04044
Nuclear contribution   :      4.76678       5.99468      -2.41239
                        -----------------------------------------
Total Dipole Moment    :      0.76487       0.22563      -0.37195
                        -----------------------------------------
Magnitude (a.u.)       :      0.87994
Magnitude (Debye)      :      2.23662


                           *** MP2 RELAXED DENSITY ***

------------------------------------------------------------------------------
                       ORCA ELECTRIC PROPERTIES CALCULATION
------------------------------------------------------------------------------

Dipole Moment Calculation                       ... on
Quadrupole Moment Calculation                   ... off
Polarizability Calculation                      ... off
GBWName                                         ... dsgdb9nsd_113583.gbw
Electron density file                           ... dsgdb9nsd_113583.pmp2re

-------------
DIPOLE MOMENT
-------------
                                X             Y             Z
Electronic contribution:     -4.02217      -5.75426       2.05342
Nuclear contribution   :      4.76678       5.99468      -2.41239
                        -----------------------------------------
Total Dipole Moment    :      0.74460       0.24043      -0.35897
                        -----------------------------------------
Magnitude (a.u.)       :      0.86087
Magnitude (Debye)      :      2.18816


Timings for individual modules:

Sum of individual times         ...     1776.061 sec (=  29.601 min)
GTO integral calculation        ...        0.908 sec (=   0.015 min)   0.1 %
SCF iterations                  ...      266.906 sec (=   4.448 min)  15.0 %
MP2 module                      ...     1508.247 sec (=  25.137 min)  84.9 %
                             ****ORCA TERMINATED NORMALLY****
TOTAL RUN TIME: 0 days 0 hours 29 minutes 36 seconds 718 msec
