
                                 *****************
                                 * O   R   C   A *
                                 *****************

           --- An Ab Initio, DFT and Semiempirical electronic structure package ---

                  #######################################################
                  #                        -***-                        #
                  #  Department of molecular theory and spectroscopy    #
                  #              Directorship: Frank Neese              #
                  # Max Planck Institute for Chemical Energy Conversion #
                  #                  D-45470 Muelheim/Ruhr              #
                  #                       Germany                       #
                  #                                                     #
                  #                  All rights reserved                #
                  #                        -***-                        #
                  #######################################################


                         Program Version 3.0.3 - RELEASE   -


 With contributions from (in alphabetic order):
   Ute Becker             : Parallelization
   Dmytro Bykov           : SCF Hessian
   Dmitry Ganyushin       : Spin-Orbit,Spin-Spin,Magnetic field MRCI
   Andreas Hansen         : Spin unrestricted coupled pair/coupled cluster methods
   Dimitrios Liakos       : Extrapolation schemes; parallel MDCI
   Robert Izsak           : Overlap fitted RIJCOSX, COSX-SCS-MP3
   Christian Kollmar      : KDIIS, OOCD, Brueckner-CCSD(T), CCSD density
   Simone Kossmann        : Meta GGA functionals, TD-DFT gradient, OOMP2, MP2 Hessian
   Taras Petrenko         : DFT Hessian,TD-DFT gradient, ASA and ECA modules, normal mode analysis, Resonance Raman, ABS, FL, XAS/XES, NRVS
   Christoph Reimann      : Effective Core Potentials
   Michael Roemelt        : Restricted open shell CIS
   Christoph Riplinger    : Improved optimizer, TS searches, QM/MM, DLPNO-CCSD
   Barbara Sandhoefer     : DKH picture change effects
   Igor Schapiro          : Molecular dynamics
   Kantharuban Sivalingam : CASSCF convergence, NEVPT2
   Boris Wezisla          : Elementary symmetry handling
   Frank Wennmohs         : Technical directorship


 We gratefully acknowledge several colleagues who have allowed us to
 interface, adapt or use parts of their codes:
   Stefan Grimme, W. Hujo, H. Kruse, T. Risthaus : VdW corrections, initial TS optimization,
                                                   DFT functionals, gCP
   Ed Valeev                                     : LibInt (2-el integral package), F12 methods
   Garnet Chan, S. Sharma, R. Olivares           : DMRG
   Ulf Ekstrom                                   : XCFun DFT Library
   Mihaly Kallay                                 : mrcc  (arbitrary order and MRCC methods)
   Andreas Klamt, Michael Diedenhofen            : otool_cosmo (COSMO solvation model)
   Frank Weinhold                                : gennbo (NPA and NBO analysis)
   Christopher J. Cramer and Donald G. Truhlar   : smd solvation model


 Your calculation uses the libint2 library for the computation of 2-el integrals
 For citations please refer to: http://libint.valeyev.net

 This ORCA versions uses:
   CBLAS   interface :  Fast vector & matrix operations
   LAPACKE interface :  Fast linear algebra routines
   SCALAPACK package :  Parallel linear algebra routines


Your calculation utilizes the basis: Ahlrichs-TZV
Cite in your paper:
H - Kr: A. Schaefer, H. Horn and R. Ahlrichs, J. Chem. Phys. 97, 2571 (1992).

The def2-TZV basis will be loaded
Cite in your paper:
 	F. Weigend, R. Ahlrichs, Phys. Chem. Chem. Phys. 2005, 7, 3297.

================================================================================
                                        WARNINGS
                       Please study these warnings very carefully!
================================================================================
Now building the actual basis set


INFO   : the flag for use of LIBINT has been found!

================================================================================
                                       INPUT FILE
================================================================================
NAME = dsgdb9nsd_007956.inp
|  1> ! RI-MP2 RIJK def2-TZVP def2-TZVP/C def2-TZVP/JK TIGHTSCF
|  2> % maxcore 2000
|  3> % mp2 density relaxed end
|  4> *xyz 0 1
|  5>  C       -0.7679498157     1.3170777967    -0.0150202476 
|  6>  C        0.0499408900     0.0302376362    -0.0850382534 
|  7>  C        1.2645774914     0.0584341620    -1.0194571881 
|  8>  C        2.1875642362    -1.0062573757    -0.4373711579 
|  9>  O        3.1198236473    -1.5515441934    -0.9519312715 
| 10>  O        1.7935473709    -1.2838204364     0.8362760043 
| 11>  C        0.6921569121    -0.4403437290     1.2467440741 
| 12>  C        1.2209809508     0.6557081523     2.1655939177 
| 13>  H       -0.1510325619     2.1727810995     0.2762948424 
| 14>  H       -1.2103927090     1.5438003418    -0.9898486715 
| 15>  H       -1.5873023958     1.2299723919     0.7065066751 
| 16>  H       -0.6074604246    -0.7819429480    -0.4190734967 
| 17>  H        1.0455258593    -0.1600112716    -2.0655293658 
| 18>  H        1.7861802228     1.0230738818    -0.9886180060 
| 19>  H        0.0086196860    -1.0858040573     1.8064211846 
| 20>  H        1.8895063580     1.3407088177     1.6343730920 
| 21>  H        0.3981867357     1.2375446943     2.5908184008 
| 22>  H        1.7835342763     0.2052046672     2.9872431276 
| 23> *
| 24> 
| 25>                          ****END OF INPUT****
================================================================================

                       ****************************
                       * Single Point Calculation *
                       ****************************

---------------------------------
CARTESIAN COORDINATES (ANGSTROEM)
---------------------------------
  C     -0.767950    1.317078   -0.015020
  C      0.049941    0.030238   -0.085038
  C      1.264577    0.058434   -1.019457
  C      2.187564   -1.006257   -0.437371
  O      3.119824   -1.551544   -0.951931
  O      1.793547   -1.283820    0.836276
  C      0.692157   -0.440344    1.246744
  C      1.220981    0.655708    2.165594
  H     -0.151033    2.172781    0.276295
  H     -1.210393    1.543800   -0.989849
  H     -1.587302    1.229972    0.706507
  H     -0.607460   -0.781943   -0.419073
  H      1.045526   -0.160011   -2.065529
  H      1.786180    1.023074   -0.988618
  H      0.008620   -1.085804    1.806421
  H      1.889506    1.340709    1.634373
  H      0.398187    1.237545    2.590818
  H      1.783534    0.205205    2.987243

----------------------------
CARTESIAN COORDINATES (A.U.)
----------------------------
  NO LB      ZA    FRAG    MASS        X           Y           Z
   0 C     6.0000    0    12.011         -1.451214836268299          2.488916332831411         -0.028384154427688
   1 C     6.0000    0    12.011          0.094374604984287          0.057140851355143         -0.160699009832998
   2 C     6.0000    0    12.011          2.389705133867157          0.110424563045188         -1.926494890766443
   3 C     6.0000    0    12.011          4.133897306778622         -1.901550860311305         -0.826511707307028
   4 O     8.0000    0    15.999          5.895612279528327         -2.931993610201749         -1.798889401450436
   5 O     8.0000    0    15.999          3.389313339215482         -2.426069029927266          1.580332620496951
   6 C     6.0000    0    12.011          1.307987005569605         -0.832129052599637          2.356004859138224
   7 C     6.0000    0    12.011          2.307319611746778          1.239108831626526          4.092379421738598
   8 H     1.0000    0     1.008         -0.285410179295509          4.105961227015301          0.522121584350934
   9 H     1.0000    0     1.008         -2.287310734505041          2.917359851456021         -1.870542903160782
  10 H     1.0000    0     1.008         -2.999566819779075          2.324310972975062          1.335104127726281
  11 H     1.0000    0     1.008         -1.147933839689520         -1.477658024071026         -0.791934138747751
  12 H     1.0000    0     1.008          1.975757540009684         -0.302377481664491         -3.903284822934048
  13 H     1.0000    0     1.008          3.375391446918444          1.933329451369722         -1.868217282403317
  14 H     1.0000    0     1.008          0.016288845900395         -2.051872303397538          3.413641321407606
  15 H     1.0000    0     1.008          3.570649544922964          2.533572490786353          3.088517544530082
  16 H     1.0000    0     1.008          0.752463880633084          2.338620550714296          4.895937240235824
  17 H     1.0000    0     1.008          3.370391332668436          0.387780622410453          5.645071406602376

--------------------------------
INTERNAL COORDINATES (ANGSTROEM)
--------------------------------
 C      0   0   0   0.000000     0.000     0.000
 C      1   0   0   1.526370     0.000     0.000
 C      2   1   0   1.532735   115.918     0.000
 C      3   2   1   1.524564   103.542   155.128
 O      4   3   2   1.196335   128.746   162.923
 O      4   3   2   1.361788   108.921   342.929
 C      6   4   3   1.446720   111.518   356.817
 C      7   6   4   1.524883   109.027   257.046
 H      1   2   3   1.094385   111.676   303.413
 H      1   2   3   1.094280   110.516    63.210
 H      1   2   3   1.095229   111.348   182.628
 H      2   1   3   1.096993   108.484   238.833
 H      3   2   1   1.090857   114.948   275.570
 H      3   2   1   1.097064   112.075    38.522
 H      7   6   4   1.094112   106.069   139.316
 H      8   7   6   1.094691   111.663    65.945
 H      8   7   6   1.093773   110.839   186.880
 H      8   7   6   1.092944   109.586   306.370

---------------------------
INTERNAL COORDINATES (A.U.)
---------------------------
 C      0   0   0   0.000000     0.000     0.000
 C      1   0   0   2.884421     0.000     0.000
 C      2   1   0   2.896449   115.918     0.000
 C      3   2   1   2.881009   103.542   155.128
 O      4   3   2   2.260746   128.746   162.923
 O      4   3   2   2.573407   108.921   342.929
 C      6   4   3   2.733904   111.518   356.817
 C      7   6   4   2.881612   109.027   257.046
 H      1   2   3   2.068089   111.676   303.413
 H      1   2   3   2.067890   110.516    63.210
 H      1   2   3   2.069683   111.348   182.628
 H      2   1   3   2.073016   108.484   238.833
 H      3   2   1   2.061421   114.948   275.570
 H      3   2   1   2.073151   112.075    38.522
 H      7   6   4   2.067572   106.069   139.316
 H      8   7   6   2.068666   111.663    65.945
 H      8   7   6   2.066932   110.839   186.880
 H      8   7   6   2.065365   109.586   306.370

---------------------
BASIS SET INFORMATION
---------------------
There are 3 groups of distinct atoms

 Group   1 Type C   : 11s6p2d1f contracted to 5s3p2d1f pattern {62111/411/11/1}
 Group   2 Type O   : 11s6p2d1f contracted to 5s3p2d1f pattern {62111/411/11/1}
 Group   3 Type H   : 5s1p contracted to 3s1p pattern {311/1}

Atom   0C    basis set group =>   1
Atom   1C    basis set group =>   1
Atom   2C    basis set group =>   1
Atom   3C    basis set group =>   1
Atom   4O    basis set group =>   2
Atom   5O    basis set group =>   2
Atom   6C    basis set group =>   1
Atom   7C    basis set group =>   1
Atom   8H    basis set group =>   3
Atom   9H    basis set group =>   3
Atom  10H    basis set group =>   3
Atom  11H    basis set group =>   3
Atom  12H    basis set group =>   3
Atom  13H    basis set group =>   3
Atom  14H    basis set group =>   3
Atom  15H    basis set group =>   3
Atom  16H    basis set group =>   3
Atom  17H    basis set group =>   3
-------------------------------
AUXILIARY BASIS SET INFORMATION
-------------------------------
There are 3 groups of distinct atoms

 Group   1 Type C   : 14s10p6d2f1g contracted to 10s8p5d1f1g pattern {5111111111/31111111/21111/2/1}
 Group   2 Type O   : 14s10p6d2f1g contracted to 10s8p4d2f1g pattern {5111111111/31111111/3111/11/1}
 Group   3 Type H   : 4s2p2d contracted to 2s2p2d pattern {31/11/11}

Atom   0C    basis set group =>   1
Atom   1C    basis set group =>   1
Atom   2C    basis set group =>   1
Atom   3C    basis set group =>   1
Atom   4O    basis set group =>   2
Atom   5O    basis set group =>   2
Atom   6C    basis set group =>   1
Atom   7C    basis set group =>   1
Atom   8H    basis set group =>   3
Atom   9H    basis set group =>   3
Atom  10H    basis set group =>   3
Atom  11H    basis set group =>   3
Atom  12H    basis set group =>   3
Atom  13H    basis set group =>   3
Atom  14H    basis set group =>   3
Atom  15H    basis set group =>   3
Atom  16H    basis set group =>   3
Atom  17H    basis set group =>   3
------------------------------------------------------------------------------
                           ORCA GTO INTEGRAL CALCULATION
                           -- RI-GTO INTEGRALS CHOSEN --
------------------------------------------------------------------------------

                         BASIS SET STATISTICS AND STARTUP INFO

Gaussian basis set:
 # of primitive gaussian shells          ...  220
 # of primitive gaussian functions       ...  448
 # of contracted shells                  ...  128
 # of contracted basis functions         ...  308
 Highest angular momentum                ...    3
 Maximum contraction depth               ...    6
Auxiliary gaussian basis set:
 # of primitive gaussian shells          ...  344
 # of primitive gaussian functions       ...  976
 # of contracted shells                  ...  260
 # of contracted aux-basis functions     ...  784
 Highest angular momentum                ...    4
 Maximum contraction depth               ...    5
Ratio of auxiliary to basis functions    ...  2.55
Integral package used                  ... LIBINT
 One Electron integrals                  ... done
 Ordering auxiliary basis shells         ... done
 Integral threshhold             Thresh  ...  2.500e-11
 Primitive cut-off               TCut    ...  2.500e-12
 Pre-screening matrix                    ... done
 Shell pair data                         ... 
 Ordering of the shell pairs             ... done (   0.001 sec) 7726 of 8256 pairs
 Determination of significant pairs      ... done (   0.000 sec)
 Creation of shell pair data             ... done (   0.002 sec)
 Storage of shell pair data              ... done (   0.002 sec)
 Shell pair data done in (   0.005 sec)
 Computing two index integrals           ... done
 Cholesky decomposition of the V-matrix  ... done


Timings:
 Total evaluation time                   ...   0.346 sec (  0.006 min)
 One electron matrix time                ...   0.078 sec (  0.001 min) = 22.5%
 Schwartz matrix evaluation time         ...   0.190 sec (  0.003 min) = 54.8%
 Two index repulsion integral time       ...   0.020 sec (  0.000 min) =  5.7%
 Cholesky decomposition of V             ...   0.026 sec (  0.000 min) =  7.5%
 Three index repulsion integral time     ...   0.000 sec (  0.000 min) =  0.0%

-------------------------------------------------------------------------------
                                 ORCA SCF
-------------------------------------------------------------------------------

------------
SCF SETTINGS
------------
Hamiltonian:
 Ab initio Hamiltonian  Method          .... Hartree-Fock(GTOs)
 RI-approximation to the Coulomb term is turned on
   Number of auxiliary basis functions  .... 784
   RI-JK (J+K treated both via RI)      .... on


General Settings:
 Integral files         IntName         .... dsgdb9nsd_007956
 Hartree-Fock type      HFTyp           .... RHF
 Total Charge           Charge          ....    0
 Multiplicity           Mult            ....    1
 Number of Electrons    NEL             ....   62
 Basis Dimension        Dim             ....  308
 Nuclear Repulsion      ENuc            ....    395.4307522753 Eh

Convergence Acceleration:
 DIIS                   CNVDIIS         .... on
   Start iteration      DIISMaxIt       ....    12
   Startup error        DIISStart       ....  0.200000
   # of expansion vecs  DIISMaxEq       ....     5
   Bias factor          DIISBfac        ....   1.050
   Max. coefficient     DIISMaxC        ....  10.000
 Newton-Raphson         CNVNR           .... off
 SOSCF                  CNVSOSCF        .... on
   Start iteration      SOSCFMaxIt      ....   150
   Startup grad/error   SOSCFStart      ....  0.003300
 Level Shifting         CNVShift        .... on
   Level shift para.    LevelShift      ....    0.2500
   Turn off err/grad.   ShiftErr        ....    0.0010
 Zerner damping         CNVZerner       .... off
 Static damping         CNVDamp         .... on
   Fraction old density DampFac         ....    0.7000
   Max. Damping (<1)    DampMax         ....    0.9800
   Min. Damping (>=0)   DampMin         ....    0.0000
   Turn off err/grad.   DampErr         ....    0.1000
 Fernandez-Rico         CNVRico         .... off

SCF Procedure:
 Maximum # iterations   MaxIter         ....   125
 SCF integral mode      SCFMode         .... Direct
   Integral package                     .... LIBINT
 Reset frequeny         DirectResetFreq ....    20
 Integral Threshold     Thresh          ....  2.500e-11 Eh
 Primitive CutOff       TCut            ....  2.500e-12 Eh

Convergence Tolerance:
 Convergence Check Mode ConvCheckMode   .... Total+1el-Energy
 Energy Change          TolE            ....  1.000e-08 Eh
 1-El. energy change                    ....  1.000e-05 Eh
 Orbital Gradient       TolG            ....  1.000e-05
 Orbital Rotation angle TolX            ....  1.000e-05
 DIIS Error             TolErr          ....  5.000e-07


Diagonalization of the overlap matrix:
Smallest eigenvalue                        ... 9.621e-05
Time for diagonalization                   ...    0.026 sec
Threshold for overlap eigenvalues          ... 1.000e-08
Number of eigenvalues below threshold      ... 0
Time for construction of square roots      ...    0.013 sec
Total time needed                          ...    0.039 sec

-------------------
DFT GRID GENERATION
-------------------

General Integration Accuracy     IntAcc      ...  4.340
Radial Grid Type                 RadialGrid  ... Gauss-Chebyshev
Angular Grid (max. acc.)         AngularGrid ... Lebedev-110
Angular grid pruning method      GridPruning ... 3 (G Style)
Weight generation scheme         WeightScheme... Becke
Basis function cutoff            BFCut       ...    1.0000e-11
Integration weight cutoff        WCut        ...    1.0000e-14
Grids for H and He will be reduced by one unit

# of grid points (after initial pruning)     ...  21308 (   0.0 sec)
# of grid points (after weights+screening)   ...  19519 (   0.1 sec)
nearest neighbour list constructed           ...    0.0 sec
Grid point re-assignment to atoms done       ...    0.0 sec
Grid point division into batches done        ...    0.0 sec
Reduced shell lists constructed in    1.2 sec

Total number of grid points                  ...    19519
Total number of batches                      ...      313
Average number of points per batch           ...       62
Average number of grid points per atom       ...     1084
Average number of shells per batch           ...    89.66 (70.05%)
Average number of basis functions per batch  ...   221.05 (71.77%)
Average number of large shells per batch     ...    70.68 (78.84%)
Average number of large basis fcns per batch ...   171.81 (77.72%)
Average number of aux-shells per batch       ...    89.66 (34.48%)
Average number of aux functions per batch    ...   221.05 (  inf%)
Maximum spatial batch extension              ...  19.23, 21.68, 22.67 au
Average spatial batch extension              ...   3.56,  3.71,  3.74 au

Time for grid setup =    1.317 sec

------------------------------
INITIAL GUESS: MODEL POTENTIAL
------------------------------
Loading Hartree-Fock densities                     ... done
Calculating cut-offs                               ... done
Setting up the integral package                    ... done
Initializing the effective Hamiltonian             ... done
Starting the Coulomb interaction                   ... done (   0.6 sec)
Reading the grid                                   ... done
Mapping shells                                     ... done
Starting the XC term evaluation                    ... done (   0.6 sec)
Transforming the Hamiltonian                       ... done (   0.0 sec)
Diagonalizing the Hamiltonian                      ... done (   0.0 sec)
Back transforming the eigenvectors                 ... done (   0.0 sec)
Now organizing SCF variables                       ... done
                      ------------------
                      INITIAL GUESS DONE (   2.7 sec)
                      ------------------
--------------
SCF ITERATIONS
--------------
ITER       Energy         Delta-E        Max-DP      RMS-DP      [F,P]     Damp
  0   -382.5370162596   0.000000000000 0.03961879  0.00083532  0.2998160 0.7000
  1   -382.3953410649   0.141675194711 0.06761514  0.00092204  0.2577914 0.7000
                               ***Turning on DIIS***
  2   -382.4409939080  -0.045652843081 0.04952734  0.00066929  0.1880725 0.7000
  3   -383.4022403347  -0.961246426756 0.01241884  0.00033021  0.1347618 0.7000
  4   -382.8271071518   0.575133182880 0.06451685  0.00084961  0.0866109 0.0000
  5   -382.8617434404  -0.034636288596 0.01362388  0.00023927  0.0293083 0.0000
  6   -382.8182092826   0.043534157775 0.00799182  0.00012231  0.0162189 0.0000
  7   -382.8434375857  -0.025228303050 0.00254268  0.00006521  0.0082842 0.0000
  8   -382.8418394648   0.001598120866 0.00211902  0.00005855  0.0064229 0.0000
                      *** Initiating the SOSCF procedure ***
                           *** Shutting down DIIS ***
                      *** Re-Reading the Fockian *** 
                      *** Removing any level shift *** 
ITER      Energy       Delta-E        Grad      Rot      Max-DP    RMS-DP
  9   -382.92089586  -0.0790563951  0.000365  0.000365  0.000509  0.000015
 10   -382.92409004  -0.0031941789  0.000141  0.000228  0.000191  0.000005
 11   -382.92409086  -0.0000008180  0.000067  0.000202  0.000288  0.000005
 12   -382.92409122  -0.0000003642  0.000013  0.000032  0.000114  0.000001
 13   -382.92409124  -0.0000000141  0.000004  0.000010  0.000063  0.000001
                  ***Gradient check signals convergence***
              ***Rediagonalizing the Fockian in SOSCF/NRSCF***

               *****************************************************
               *                     SUCCESS                       *
               *           SCF CONVERGED AFTER  14 CYCLES          *
               *****************************************************


----------------
TOTAL SCF ENERGY
----------------

Total Energy       :         -382.92409124 Eh          -10419.89426 eV

Components:
Nuclear Repulsion  :          395.43075228 Eh           10760.21781 eV
Electronic Energy  :         -778.35484351 Eh          -21180.11207 eV

One Electron Energy:        -1305.46310864 Eh          -35523.45716 eV
Two Electron Energy:          527.10826513 Eh           14343.34510 eV

Virial components:
Potential Energy   :         -765.32593068 Eh          -20825.57733 eV
Kinetic Energy     :          382.40183945 Eh           10405.68307 eV
Virial Ratio       :            2.00136571


---------------
SCF CONVERGENCE
---------------

  Last Energy change         ...   -2.2774e-09  Tolerance :   1.0000e-08
  Last MAX-Density change    ...    1.0106e-05  Tolerance :   1.0000e-07
  Last RMS-Density change    ...    1.2163e-07  Tolerance :   5.0000e-09
  Last Orbital Gradient      ...    2.4573e-06  Tolerance :   1.0000e-05
  Last Orbital Rotation      ...    1.9850e-06  Tolerance :   1.0000e-05

             **** THE GBW FILE WAS UPDATED (dsgdb9nsd_007956.gbw) ****
             **** DENSITY FILE WAS UPDATED (dsgdb9nsd_007956.scfp.tmp) ****
             **** ENERGY FILE WAS UPDATED (dsgdb9nsd_007956.en.tmp) ****
----------------
ORBITAL ENERGIES
----------------

  NO   OCC          E(Eh)            E(eV) 
   0   2.0000     -20.594310      -560.3997 
   1   2.0000     -20.535128      -558.7892 
   2   2.0000     -11.373379      -309.4854 
   3   2.0000     -11.304540      -307.6122 
   4   2.0000     -11.256330      -306.3003 
   5   2.0000     -11.251385      -306.1657 
   6   2.0000     -11.238360      -305.8113 
   7   2.0000     -11.232764      -305.6590 
   8   2.0000      -1.452195       -39.5162 
   9   2.0000      -1.361561       -37.0500 
  10   2.0000      -1.113401       -30.2972 
  11   2.0000      -1.033627       -28.1264 
  12   2.0000      -0.977858       -26.6089 
  13   2.0000      -0.902056       -24.5462 
  14   2.0000      -0.811008       -22.0687 
  15   2.0000      -0.760490       -20.6940 
  16   2.0000      -0.705142       -19.1879 
  17   2.0000      -0.678436       -18.4612 
  18   2.0000      -0.652095       -17.7444 
  19   2.0000      -0.621301       -16.9065 
  20   2.0000      -0.603764       -16.4293 
  21   2.0000      -0.588777       -16.0214 
  22   2.0000      -0.570237       -15.5169 
  23   2.0000      -0.555850       -15.1255 
  24   2.0000      -0.549121       -14.9423 
  25   2.0000      -0.540634       -14.7114 
  26   2.0000      -0.521961       -14.2033 
  27   2.0000      -0.482944       -13.1416 
  28   2.0000      -0.477368       -12.9899 
  29   2.0000      -0.447070       -12.1654 
  30   2.0000      -0.430213       -11.7067 
  31   0.0000       0.116570         3.1720 
  32   0.0000       0.142410         3.8752 
  33   0.0000       0.158601         4.3158 
  34   0.0000       0.165651         4.5076 
  35   0.0000       0.170582         4.6418 
  36   0.0000       0.194213         5.2848 
  37   0.0000       0.207035         5.6337 
  38   0.0000       0.209696         5.7061 
  39   0.0000       0.224611         6.1120 
  40   0.0000       0.234999         6.3947 
  41   0.0000       0.236330         6.4309 
  42   0.0000       0.256440         6.9781 
  43   0.0000       0.267029         7.2662 
  44   0.0000       0.282845         7.6966 
  45   0.0000       0.293217         7.9789 
  46   0.0000       0.296138         8.0583 
  47   0.0000       0.322496         8.7756 
  48   0.0000       0.332916         9.0591 
  49   0.0000       0.342986         9.3331 
  50   0.0000       0.345873         9.4117 
  51   0.0000       0.373436        10.1617 
  52   0.0000       0.387309        10.5392 
  53   0.0000       0.399141        10.8612 
  54   0.0000       0.407831        11.0976 
  55   0.0000       0.435215        11.8428 
  56   0.0000       0.443618        12.0715 
  57   0.0000       0.452130        12.3031 
  58   0.0000       0.469689        12.7809 
  59   0.0000       0.509105        13.8534 
  60   0.0000       0.516565        14.0564 
  61   0.0000       0.535329        14.5670 
  62   0.0000       0.540078        14.6963 
  63   0.0000       0.546254        14.8643 
  64   0.0000       0.562138        15.2966 
  65   0.0000       0.567052        15.4303 
  66   0.0000       0.577217        15.7069 
  67   0.0000       0.587275        15.9806 
  68   0.0000       0.589893        16.0518 
  69   0.0000       0.596332        16.2270 
  70   0.0000       0.614555        16.7229 
  71   0.0000       0.619720        16.8634 
  72   0.0000       0.620980        16.8977 
  73   0.0000       0.642047        17.4710 
  74   0.0000       0.647215        17.6116 
  75   0.0000       0.658969        17.9314 
  76   0.0000       0.682649        18.5758 
  77   0.0000       0.690195        18.7812 
  78   0.0000       0.697049        18.9677 
  79   0.0000       0.713452        19.4140 
  80   0.0000       0.735894        20.0247 
  81   0.0000       0.757732        20.6189 
  82   0.0000       0.779204        21.2032 
  83   0.0000       0.796559        21.6755 
  84   0.0000       0.809838        22.0368 
  85   0.0000       0.833049        22.6684 
  86   0.0000       0.836704        22.7679 
  87   0.0000       0.856705        23.3121 
  88   0.0000       0.878613        23.9083 
  89   0.0000       0.920782        25.0558 
  90   0.0000       0.948514        25.8104 
  91   0.0000       0.979734        26.6599 
  92   0.0000       0.992567        27.0091 
  93   0.0000       1.023939        27.8628 
  94   0.0000       1.043984        28.4082 
  95   0.0000       1.056386        28.7457 
  96   0.0000       1.071545        29.1582 
  97   0.0000       1.097997        29.8780 
  98   0.0000       1.102455        29.9993 
  99   0.0000       1.113381        30.2966 
 100   0.0000       1.135867        30.9085 
 101   0.0000       1.153693        31.3936 
 102   0.0000       1.187641        32.3173 
 103   0.0000       1.198371        32.6093 
 104   0.0000       1.228898        33.4400 
 105   0.0000       1.248868        33.9834 
 106   0.0000       1.270876        34.5823 
 107   0.0000       1.293627        35.2014 
 108   0.0000       1.300574        35.3904 
 109   0.0000       1.316927        35.8354 
 110   0.0000       1.351324        36.7714 
 111   0.0000       1.373533        37.3757 
 112   0.0000       1.386504        37.7287 
 113   0.0000       1.400923        38.1211 
 114   0.0000       1.420850        38.6633 
 115   0.0000       1.455209        39.5983 
 116   0.0000       1.462366        39.7930 
 117   0.0000       1.489507        40.5315 
 118   0.0000       1.545435        42.0534 
 119   0.0000       1.606011        43.7018 
 120   0.0000       1.626136        44.2494 
 121   0.0000       1.649767        44.8924 
 122   0.0000       1.681527        45.7567 
 123   0.0000       1.742638        47.4196 
 124   0.0000       1.749228        47.5989 
 125   0.0000       1.768319        48.1184 
 126   0.0000       1.802191        49.0401 
 127   0.0000       1.803186        49.0672 
 128   0.0000       1.812977        49.3336 
 129   0.0000       1.837717        50.0068 
 130   0.0000       1.847933        50.2848 
 131   0.0000       1.862391        50.6782 
 132   0.0000       1.870220        50.8913 
 133   0.0000       1.874882        51.0181 
 134   0.0000       1.884700        51.2853 
 135   0.0000       1.894279        51.5459 
 136   0.0000       1.927295        52.4444 
 137   0.0000       1.946106        52.9562 
 138   0.0000       1.981445        53.9179 
 139   0.0000       2.004165        54.5361 
 140   0.0000       2.016462        54.8707 
 141   0.0000       2.083320        56.6900 
 142   0.0000       2.105476        57.2929 
 143   0.0000       2.126213        57.8572 
 144   0.0000       2.143741        58.3342 
 145   0.0000       2.167151        58.9712 
 146   0.0000       2.192919        59.6724 
 147   0.0000       2.207170        60.0601 
 148   0.0000       2.222542        60.4785 
 149   0.0000       2.249450        61.2106 
 150   0.0000       2.260339        61.5070 
 151   0.0000       2.282402        62.1073 
 152   0.0000       2.294888        62.4471 
 153   0.0000       2.305504        62.7360 
 154   0.0000       2.330523        63.4167 
 155   0.0000       2.346362        63.8478 
 156   0.0000       2.367953        64.4353 
 157   0.0000       2.396276        65.2060 
 158   0.0000       2.423679        65.9517 
 159   0.0000       2.467869        67.1541 
 160   0.0000       2.481020        67.5120 
 161   0.0000       2.512761        68.3757 
 162   0.0000       2.533545        68.9413 
 163   0.0000       2.557002        69.5796 
 164   0.0000       2.588710        70.4424 
 165   0.0000       2.610570        71.0372 
 166   0.0000       2.628061        71.5132 
 167   0.0000       2.638031        71.7845 
 168   0.0000       2.642866        71.9160 
 169   0.0000       2.657494        72.3141 
 170   0.0000       2.676578        72.8334 
 171   0.0000       2.704268        73.5869 
 172   0.0000       2.717390        73.9440 
 173   0.0000       2.728764        74.2534 
 174   0.0000       2.767386        75.3044 
 175   0.0000       2.797663        76.1283 
 176   0.0000       2.825329        76.8811 
 177   0.0000       2.843213        77.3678 
 178   0.0000       2.850467        77.5652 
 179   0.0000       2.864418        77.9448 
 180   0.0000       2.882271        78.4306 
 181   0.0000       2.896282        78.8118 
 182   0.0000       2.902876        78.9913 
 183   0.0000       2.903674        79.0130 
 184   0.0000       2.956135        80.4405 
 185   0.0000       2.969304        80.7989 
 186   0.0000       2.978886        81.0596 
 187   0.0000       3.006024        81.7981 
 188   0.0000       3.043205        82.8098 
 189   0.0000       3.059575        83.2553 
 190   0.0000       3.070129        83.5425 
 191   0.0000       3.085159        83.9515 
 192   0.0000       3.113689        84.7278 
 193   0.0000       3.139645        85.4341 
 194   0.0000       3.179477        86.5180 
 195   0.0000       3.188605        86.7664 
 196   0.0000       3.210641        87.3660 
 197   0.0000       3.217762        87.5597 
 198   0.0000       3.248257        88.3896 
 199   0.0000       3.290204        89.5310 
 200   0.0000       3.317504        90.2739 
 201   0.0000       3.350204        91.1637 
 202   0.0000       3.355956        91.3202 
 203   0.0000       3.368436        91.6598 
 204   0.0000       3.386428        92.1494 
 205   0.0000       3.402127        92.5766 
 206   0.0000       3.432000        93.3895 
 207   0.0000       3.440326        93.6160 
 208   0.0000       3.452714        93.9531 
 209   0.0000       3.479094        94.6710 
 210   0.0000       3.500780        95.2611 
 211   0.0000       3.521485        95.8245 
 212   0.0000       3.525033        95.9210 
 213   0.0000       3.533762        96.1585 
 214   0.0000       3.560150        96.8766 
 215   0.0000       3.561469        96.9125 
 216   0.0000       3.571540        97.1865 
 217   0.0000       3.607148        98.1555 
 218   0.0000       3.619440        98.4900 
 219   0.0000       3.642311        99.1123 
 220   0.0000       3.659855        99.5897 
 221   0.0000       3.676256       100.0360 
 222   0.0000       3.685721       100.2936 
 223   0.0000       3.698746       100.6480 
 224   0.0000       3.712015       101.0091 
 225   0.0000       3.739853       101.7666 
 226   0.0000       3.770810       102.6090 
 227   0.0000       3.786107       103.0252 
 228   0.0000       3.799437       103.3879 
 229   0.0000       3.804921       103.5372 
 230   0.0000       3.856830       104.9497 
 231   0.0000       3.866642       105.2167 
 232   0.0000       3.881243       105.6140 
 233   0.0000       3.911077       106.4258 
 234   0.0000       3.943600       107.3108 
 235   0.0000       3.959844       107.7528 
 236   0.0000       4.002090       108.9024 
 237   0.0000       4.010427       109.1293 
 238   0.0000       4.021314       109.4255 
 239   0.0000       4.065972       110.6407 
 240   0.0000       4.091602       111.3381 
 241   0.0000       4.114349       111.9571 
 242   0.0000       4.137171       112.5781 
 243   0.0000       4.188866       113.9848 
 244   0.0000       4.218746       114.7979 
 245   0.0000       4.235632       115.2574 
 246   0.0000       4.270671       116.2109 
 247   0.0000       4.284441       116.5856 
 248   0.0000       4.350035       118.3705 
 249   0.0000       4.366642       118.8224 
 250   0.0000       4.389343       119.4401 
 251   0.0000       4.401471       119.7701 
 252   0.0000       4.431990       120.6006 
 253   0.0000       4.464558       121.4868 
 254   0.0000       4.491171       122.2110 
 255   0.0000       4.552411       123.8774 
 256   0.0000       4.581147       124.6594 
 257   0.0000       4.606745       125.3559 
 258   0.0000       4.692276       127.6833 
 259   0.0000       4.732562       128.7796 
 260   0.0000       4.753756       129.3563 
 261   0.0000       4.783974       130.1786 
 262   0.0000       4.812305       130.9495 
 263   0.0000       4.849868       131.9716 
 264   0.0000       4.897010       133.2544 
 265   0.0000       4.910393       133.6186 
 266   0.0000       4.988278       135.7379 
 267   0.0000       5.012333       136.3925 
 268   0.0000       5.071196       137.9942 
 269   0.0000       5.110513       139.0641 
 270   0.0000       5.165214       140.5526 
 271   0.0000       5.205691       141.6541 
 272   0.0000       5.238972       142.5597 
 273   0.0000       5.313241       144.5806 
 274   0.0000       5.364414       145.9731 
 275   0.0000       5.381501       146.4381 
 276   0.0000       5.643089       153.5563 
 277   0.0000       5.666226       154.1859 
 278   0.0000       5.767982       156.9548 
 279   0.0000       5.913338       160.9101 
 280   0.0000       6.009818       163.5355 
 281   0.0000       6.084825       165.5765 
 282   0.0000       6.232264       169.5885 
 283   0.0000       6.294210       171.2742 
 284   0.0000       6.411527       174.4665 
 285   0.0000       6.522759       177.4933 
 286   0.0000       6.710617       182.6052 
 287   0.0000       6.727878       183.0749 
 288   0.0000       6.905651       187.9123 
 289   0.0000       6.941006       188.8744 
 290   0.0000       7.021988       191.0780 
 291   0.0000       7.233620       196.8368 
 292   0.0000       7.312766       198.9905 
 293   0.0000       7.344806       199.8623 
 294   0.0000       7.365068       200.4137 
 295   0.0000       7.436344       202.3532 
 296   0.0000       7.549609       205.4353 
 297   0.0000       7.630364       207.6328 
 298   0.0000       7.734446       210.4650 
 299   0.0000       7.930309       215.7947 
 300   0.0000      23.456215       638.2761 
 301   0.0000      23.493177       639.2819 
 302   0.0000      23.543943       640.6633 
 303   0.0000      23.646488       643.4536 
 304   0.0000      23.738973       645.9703 
 305   0.0000      24.391350       663.7224 
 306   0.0000      45.501797      1238.1668 
 307   0.0000      45.818788      1246.7926 

                    ********************************
                    * MULLIKEN POPULATION ANALYSIS *
                    ********************************

-----------------------
MULLIKEN ATOMIC CHARGES
-----------------------
   0 C :   -0.358268
   1 C :   -0.004822
   2 C :   -0.226456
   3 C :    0.430827
   4 O :   -0.434935
   5 O :   -0.353119
   6 C :    0.197826
   7 C :   -0.381440
   8 H :    0.110340
   9 H :    0.121864
  10 H :    0.117059
  11 H :    0.084680
  12 H :    0.130474
  13 H :    0.118428
  14 H :    0.093349
  15 H :    0.109202
  16 H :    0.111761
  17 H :    0.133229
Sum of atomic charges:    0.0000000

--------------------------------
MULLIKEN REDUCED ORBITAL CHARGES
--------------------------------
  0 C s       :     3.245975  s :     3.245975
      pz      :     1.066614  p :     3.032110
      px      :     1.011107
      py      :     0.954389
      dz2     :     0.012273  d :     0.075649
      dxz     :     0.019578
      dyz     :     0.010362
      dx2y2   :     0.013882
      dxy     :     0.019553
      f0      :     0.000590  f :     0.004533
      f+1     :     0.000949
      f-1     :     0.000286
      f+2     :     0.000217
      f-2     :     0.000635
      f+3     :     0.001141
      f-3     :     0.000716
  1 C s       :     3.056374  s :     3.056374
      pz      :     0.914225  p :     2.804858
      px      :     0.937185
      py      :     0.953449
      dz2     :     0.027375  d :     0.135022
      dxz     :     0.032122
      dyz     :     0.022408
      dx2y2   :     0.022221
      dxy     :     0.030895
      f0      :     0.001188  f :     0.008568
      f+1     :     0.001612
      f-1     :     0.000833
      f+2     :     0.000922
      f-2     :     0.001505
      f+3     :     0.001345
      f-3     :     0.001163
  2 C s       :     3.140391  s :     3.140391
      pz      :     1.041272  p :     2.992834
      px      :     0.951094
      py      :     1.000469
      dz2     :     0.022814  d :     0.086968
      dxz     :     0.017329
      dyz     :     0.009113
      dx2y2   :     0.011534
      dxy     :     0.026178
      f0      :     0.001109  f :     0.006262
      f+1     :     0.001190
      f-1     :     0.000585
      f+2     :     0.000593
      f-2     :     0.001086
      f+3     :     0.001079
      f-3     :     0.000619
  3 C s       :     3.058105  s :     3.058105
      pz      :     0.699902  p :     2.209685
      px      :     0.747632
      py      :     0.762152
      dz2     :     0.073908  d :     0.274610
      dxz     :     0.064348
      dyz     :     0.049174
      dx2y2   :     0.046024
      dxy     :     0.041156
      f0      :     0.004013  f :     0.026773
      f+1     :     0.006137
      f-1     :     0.004030
      f+2     :     0.002911
      f-2     :     0.003290
      f+3     :     0.003837
      f-3     :     0.002555
  4 O s       :     3.822936  s :     3.822936
      pz      :     1.677792  p :     4.572619
      px      :     1.384536
      py      :     1.510291
      dz2     :     0.004919  d :     0.037095
      dxz     :     0.007997
      dyz     :     0.005067
      dx2y2   :     0.010963
      dxy     :     0.008148
      f0      :     0.000227  f :     0.002286
      f+1     :     0.000383
      f-1     :     0.000151
      f+2     :     0.000348
      f-2     :     0.000438
      f+3     :     0.000433
      f-3     :     0.000306
  5 O s       :     3.769779  s :     3.769779
      pz      :     1.401079  p :     4.539902
      px      :     1.508691
      py      :     1.630131
      dz2     :     0.014356  d :     0.041337
      dxz     :     0.006140
      dyz     :     0.007407
      dx2y2   :     0.003961
      dxy     :     0.009473
      f0      :     0.000485  f :     0.002101
      f+1     :     0.000448
      f-1     :     0.000285
      f+2     :     0.000162
      f-2     :     0.000282
      f+3     :     0.000172
      f-3     :     0.000269
  6 C s       :     3.072411  s :     3.072411
      pz      :     0.935201  p :     2.543749
      px      :     0.776116
      py      :     0.832431
      dz2     :     0.025306  d :     0.172945
      dxz     :     0.035927
      dyz     :     0.040299
      dx2y2   :     0.031237
      dxy     :     0.040176
      f0      :     0.001674  f :     0.013069
      f+1     :     0.001624
      f-1     :     0.001524
      f+2     :     0.001337
      f-2     :     0.002853
      f+3     :     0.002220
      f-3     :     0.001837
  7 C s       :     3.255070  s :     3.255070
      pz      :     1.030342  p :     3.049551
      px      :     1.030763
      py      :     0.988446
      dz2     :     0.009759  d :     0.072254
      dxz     :     0.017878
      dyz     :     0.019016
      dx2y2   :     0.004712
      dxy     :     0.020889
      f0      :     0.000309  f :     0.004565
      f+1     :     0.000327
      f-1     :     0.000726
      f+2     :     0.000530
      f-2     :     0.001920
      f+3     :     0.000301
      f-3     :     0.000452
  8 H s       :     0.867789  s :     0.867789
      pz      :     0.004441  p :     0.021871
      px      :     0.006681
      py      :     0.010749
  9 H s       :     0.856289  s :     0.856289
      pz      :     0.012023  p :     0.021848
      px      :     0.005596
      py      :     0.004229
 10 H s       :     0.861203  s :     0.861203
      pz      :     0.008191  p :     0.021738
      px      :     0.009962
      py      :     0.003585
 11 H s       :     0.892631  s :     0.892631
      pz      :     0.004699  p :     0.022690
      px      :     0.008014
      py      :     0.009977
 12 H s       :     0.846633  s :     0.846633
      pz      :     0.014955  p :     0.022893
      px      :     0.003940
      py      :     0.003999
 13 H s       :     0.858778  s :     0.858778
      pz      :     0.003706  p :     0.022794
      px      :     0.006339
      py      :     0.012749
 14 H s       :     0.884659  s :     0.884659
      pz      :     0.006928  p :     0.021992
      px      :     0.007674
      py      :     0.007390
 15 H s       :     0.868933  s :     0.868933
      pz      :     0.005747  p :     0.021865
      px      :     0.007930
      py      :     0.008188
 16 H s       :     0.866404  s :     0.866404
      pz      :     0.005519  p :     0.021835
      px      :     0.009317
      py      :     0.006999
 17 H s       :     0.844674  s :     0.844674
      pz      :     0.010081  p :     0.022097
      px      :     0.006783
      py      :     0.005232


                     *******************************
                     * LOEWDIN POPULATION ANALYSIS *
                     *******************************

----------------------
LOEWDIN ATOMIC CHARGES
----------------------
   0 C :   -0.258698
   1 C :   -0.239451
   2 C :   -0.173122
   3 C :   -0.381295
   4 O :    0.061411
   5 O :    0.214668
   6 C :   -0.245787
   7 C :   -0.257361
   8 H :    0.115495
   9 H :    0.117782
  10 H :    0.116867
  11 H :    0.148252
  12 H :    0.142847
  13 H :    0.147001
  14 H :    0.135804
  15 H :    0.115718
  16 H :    0.117728
  17 H :    0.122143

-------------------------------
LOEWDIN REDUCED ORBITAL CHARGES
-------------------------------
  0 C s       :     2.821848  s :     2.821848
      pz      :     1.056887  p :     3.134326
      px      :     1.042598
      py      :     1.034841
      dz2     :     0.039394  d :     0.277769
      dxz     :     0.069165
      dyz     :     0.040559
      dx2y2   :     0.059391
      dxy     :     0.069261
      f0      :     0.003017  f :     0.024754
      f+1     :     0.002746
      f-1     :     0.002844
      f+2     :     0.003242
      f-2     :     0.003162
      f+3     :     0.004461
      f-3     :     0.005281
  1 C s       :     2.727707  s :     2.727707
      pz      :     0.969022  p :     2.945037
      px      :     0.977828
      py      :     0.998187
      dz2     :     0.098905  d :     0.514107
      dxz     :     0.116493
      dyz     :     0.090137
      dx2y2   :     0.077149
      dxy     :     0.131422
      f0      :     0.007389  f :     0.052601
      f+1     :     0.008561
      f-1     :     0.005910
      f+2     :     0.007402
      f-2     :     0.009279
      f+3     :     0.006006
      f-3     :     0.008054
  2 C s       :     2.769483  s :     2.769483
      pz      :     1.007875  p :     3.007139
      px      :     0.993208
      py      :     1.006056
      dz2     :     0.105523  d :     0.358386
      dxz     :     0.068020
      dyz     :     0.033311
      dx2y2   :     0.052117
      dxy     :     0.099415
      f0      :     0.004553  f :     0.038114
      f+1     :     0.006887
      f-1     :     0.004136
      f+2     :     0.004569
      f-2     :     0.007813
      f+3     :     0.006136
      f-3     :     0.004020
  3 C s       :     2.752159  s :     2.752159
      pz      :     0.832185  p :     2.519948
      px      :     0.868118
      py      :     0.819645
      dz2     :     0.252939  d :     0.951330
      dxz     :     0.230863
      dyz     :     0.163455
      dx2y2   :     0.143864
      dxy     :     0.160209
      f0      :     0.023542  f :     0.157858
      f+1     :     0.038022
      f-1     :     0.027557
      f+2     :     0.019446
      f-2     :     0.015748
      f+3     :     0.018133
      f-3     :     0.015409
  4 O s       :     3.398798  s :     3.398798
      pz      :     1.578228  p :     4.467881
      px      :     1.439997
      py      :     1.449656
      dz2     :     0.009953  d :     0.066074
      dxz     :     0.017395
      dyz     :     0.007603
      dx2y2   :     0.013006
      dxy     :     0.018116
      f0      :     0.000659  f :     0.005837
      f+1     :     0.001040
      f-1     :     0.000349
      f+2     :     0.000790
      f-2     :     0.001265
      f+3     :     0.000673
      f-3     :     0.001061
  5 O s       :     3.265892  s :     3.265892
      pz      :     1.408207  p :     4.415727
      px      :     1.454341
      py      :     1.553179
      dz2     :     0.030429  d :     0.097432
      dxz     :     0.020748
      dyz     :     0.017141
      dx2y2   :     0.011932
      dxy     :     0.017182
      f0      :     0.001229  f :     0.006280
      f+1     :     0.001200
      f-1     :     0.001281
      f+2     :     0.000575
      f-2     :     0.000709
      f+3     :     0.000676
      f-3     :     0.000610
  6 C s       :     2.749134  s :     2.749134
      pz      :     0.988377  p :     2.788555
      px      :     0.860732
      py      :     0.939446
      dz2     :     0.103946  d :     0.624830
      dxz     :     0.130481
      dyz     :     0.136390
      dx2y2   :     0.098075
      dxy     :     0.155938
      f0      :     0.012262  f :     0.083269
      f+1     :     0.011350
      f-1     :     0.010283
      f+2     :     0.008420
      f-2     :     0.012810
      f+3     :     0.014711
      f-3     :     0.013433
  7 C s       :     2.826788  s :     2.826788
      pz      :     1.040972  p :     3.138546
      px      :     1.052120
      py      :     1.045454
      dz2     :     0.038824  d :     0.267580
      dxz     :     0.063087
      dyz     :     0.066444
      dx2y2   :     0.020385
      dxy     :     0.078841
      f0      :     0.003751  f :     0.024446
      f+1     :     0.002211
      f-1     :     0.004836
      f+2     :     0.002699
      f-2     :     0.004647
      f+3     :     0.002663
      f-3     :     0.003638
  8 H s       :     0.824548  s :     0.824548
      pz      :     0.013979  p :     0.059957
      px      :     0.019836
      py      :     0.026142
  9 H s       :     0.822297  s :     0.822297
      pz      :     0.031219  p :     0.059921
      px      :     0.015939
      py      :     0.012763
 10 H s       :     0.823456  s :     0.823456
      pz      :     0.022580  p :     0.059677
      px      :     0.025176
      py      :     0.011921
 11 H s       :     0.795637  s :     0.795637
      pz      :     0.013746  p :     0.056112
      px      :     0.019002
      py      :     0.023364
 12 H s       :     0.797228  s :     0.797228
      pz      :     0.034418  p :     0.059925
      px      :     0.012356
      py      :     0.013152
 13 H s       :     0.793810  s :     0.793810
      pz      :     0.012192  p :     0.059189
      px      :     0.017309
      py      :     0.029688
 14 H s       :     0.808645  s :     0.808645
      pz      :     0.018032  p :     0.055551
      px      :     0.019005
      py      :     0.018514
 15 H s       :     0.824342  s :     0.824342
      pz      :     0.017734  p :     0.059941
      px      :     0.021107
      py      :     0.021099
 16 H s       :     0.822259  s :     0.822259
      pz      :     0.015681  p :     0.060013
      px      :     0.025759
      py      :     0.018573
 17 H s       :     0.817183  s :     0.817183
      pz      :     0.025537  p :     0.060675
      px      :     0.018788
      py      :     0.016349


                      *****************************
                      * MAYER POPULATION ANALYSIS *
                      *****************************

  NA   - Mulliken gross atomic population
  ZA   - Total nuclear charge
  QA   - Mulliken gross atomic charge
  VA   - Mayer's total valence
  BVA  - Mayer's bonded valence
  FA   - Mayer's free valence

  ATOM       NA         ZA         QA         VA         BVA        FA
  0 C      6.3583     6.0000    -0.3583     3.9326     3.9326    -0.0000
  1 C      6.0048     6.0000    -0.0048     3.8823     3.8823    -0.0000
  2 C      6.2265     6.0000    -0.2265     3.8872     3.8872    -0.0000
  3 C      5.5692     6.0000     0.4308     4.2195     4.2195     0.0000
  4 O      8.4349     8.0000    -0.4349     2.0413     2.0413     0.0000
  5 O      8.3531     8.0000    -0.3531     1.9650     1.9650    -0.0000
  6 C      5.8022     6.0000     0.1978     3.8002     3.8002     0.0000
  7 C      6.3814     6.0000    -0.3814     3.9579     3.9579    -0.0000
  8 H      0.8897     1.0000     0.1103     0.9703     0.9703    -0.0000
  9 H      0.8781     1.0000     0.1219     0.9688     0.9688     0.0000
 10 H      0.8829     1.0000     0.1171     0.9722     0.9722    -0.0000
 11 H      0.9153     1.0000     0.0847     0.9695     0.9695    -0.0000
 12 H      0.8695     1.0000     0.1305     0.9861     0.9861    -0.0000
 13 H      0.8816     1.0000     0.1184     0.9807     0.9807     0.0000
 14 H      0.9067     1.0000     0.0933     0.9603     0.9603     0.0000
 15 H      0.8908     1.0000     0.1092     0.9720     0.9720     0.0000
 16 H      0.8882     1.0000     0.1118     0.9704     0.9704    -0.0000
 17 H      0.8668     1.0000     0.1332     0.9766     0.9766    -0.0000

  Mayer bond orders larger than 0.1
B(  0-C ,  1-C ) :   0.9568 B(  0-C ,  8-H ) :   0.9803 B(  0-C ,  9-H ) :   0.9866 
B(  0-C , 10-H ) :   0.9936 B(  1-C ,  2-C ) :   0.9907 B(  1-C ,  6-C ) :   0.9691 
B(  1-C , 11-H ) :   0.9787 B(  2-C ,  3-C ) :   0.9909 B(  2-C , 12-H ) :   0.9668 
B(  2-C , 13-H ) :   0.9598 B(  3-C ,  4-O ) :   2.0568 B(  3-C ,  5-O ) :   1.1368 
B(  5-O ,  6-C ) :   0.8623 B(  6-C ,  7-C ) :   0.9731 B(  6-C , 14-H ) :   0.9742 
B(  7-C , 15-H ) :   0.9804 B(  7-C , 16-H ) :   0.9840 B(  7-C , 17-H ) :   0.9850 


-------
TIMINGS
-------

Total SCF time: 0 days 0 hours 1 min 58 sec 

Total time                  ....     118.329 sec
Sum of individual times     ....     122.200 sec  (103.3%)

Fock matrix formation       ....     117.096 sec  ( 99.0%)
Diagonalization             ....       0.562 sec  (  0.5%)
Density matrix formation    ....       0.036 sec  (  0.0%)
Population analysis         ....       0.130 sec  (  0.1%)
Initial guess               ....       2.670 sec  (  2.3%)
Orbital Transformation      ....       0.000 sec  (  0.0%)
Orbital Orthonormalization  ....       0.000 sec  (  0.0%)
DIIS solution               ....       0.164 sec  (  0.1%)
SOSCF solution              ....       0.226 sec  (  0.2%)

   <<< Auxbasis replaced with dsgdb9nsd_007956.AUXC.tmp (Dim=758) >>> 


------------------------------------------------------------------------------
                              ORCA MP2 CALCULATION
------------------------------------------------------------------------------

Freezing NCore=16 chemical core electrons

   <<< Use J-auxbasis for calculation of Separable RI-J derivative contributions dsgdb9nsd_007956.AUXJ.tmp (Dim=784) >>> 


---------------------
RI-MP2 ENERGY+DENSITY
---------------------
Dimension of the basis                    ...  308
Memory devoted to MP2                     ... 2000 MB   
Data format for buffers                   ... DOUBLE
Compression type for matrix containers    ... UNCOMPRESSED
Overall scaling of the MP2 energy         ...   1.000e+00 Eh
Calculating two index integrals           ... done (    0.024 sec)
Cholesky decomposition of V**-1           ... done (    0.175 sec)

-----------------
RI-TRANSFORMATION (AUX index driven)
-----------------

Dimension of the orbital-basis         ... 308
Dimension of the aux-basis             ... 758
Transformation of internal MOs         ...    0-  30
Transformation of internal/external MOs...    0-  30 to   31- 307
Number Format for Storage              ... Double (8 Byte)
Integral mode                          ... Direct

First Phase: integral generation and transformation of MO indices
  Aux angular momentum 0               ... done (    1.156 sec)
  Aux angular momentum 1               ... done (    1.576 sec)
  Aux angular momentum 2               ... done (    1.637 sec)
  Aux angular momentum 3               ... done (    0.736 sec)
  Aux angular momentum 4               ... done (    0.323 sec)
Closing buffer VIJ ( 0.00 GB; CompressionRatio= 1.93)
Closing buffer VIA ( 0.05 GB; CompressionRatio= 1.00)
  Phase 1 completed in     5.544 sec
Second Phase: sorting and transformation of aux index

IJ-Transformation
Memory available                       ... 1989 MB 
Max. # MO pairs treated in a batch     ... 31    
# of internal orbitals                 ... 31
# batches for internal orbitals        ... 1
Closing buffer IJV ( 0.00 GB; CompressionRatio= 1.00)
(ij|v) transformation done in     0.143 sec

IA-Transformation
Memory available                       ... 1989 MB 
Max. # MO pairs treated in a batch     ... 31    
# of internal orbitals                 ... 31
# batches for internal orbitals        ... 1
Closing buffer IAV ( 0.05 GB; CompressionRatio= 1.00)
(ia|v) transformation done in     1.048 sec

  Phase 2 completed in     1.208 sec
RI-Integral transformation completed in     6.752 sec
Opening buffers                              ... done
Frozen core precalculation                   ... done

Starting loop over batches of integrals:

Operator 0  - window                       ... (  8- 30)x( 31-307)
Operator 0  - Memory available             ...  2000 MB
Operator 0  - Memory needed per MO         ...   3.2 MB
Operator 0  - Number of orbitals per batch ... 23
Operator 0  - Number of batches            ... 1

OPERATOR  0   PASS   0:  MOs     8 ...   30
  Reading integrals       ... ok
  Internal MO  10
  Internal MO  13
  Internal MO  16
  Internal MO  19
  Internal MO  22
  Internal MO  25
  Internal MO  28
Time spent in pair loops =    26.404 sec
Deleting buffer (Ka|jb)[aa] ...done

-----------------------------------------------
 RI-MP2 CORRELATION ENERGY:     -1.441782301 Eh
-----------------------------------------------


---------------------
MP2 DENSITY FORMATION
---------------------

Completing the external part of the density      ... done
Storing the unrelaxed density                    ... done

Calculating G(D)                                 ... done
Completing the Lagrangian                        ... done
Solving the Z-vector equations                   ... 

------------------------------------------------------------------------------
                           ORCA CP-SCF CALCULATION
------------------------------------------------------------------------------

Input orbitals are from        ... dsgdb9nsd_007956.gbw
Input Perturbation             ... dsgdb9nsd_007956.pin.tmp
Wavefunction output            ... dsgdb9nsd_007956.pout.tmp
Perturbation mode              ... Real perturbation
Solver                         ... POPLE
Max. number of iterations      ... 128
Convergence tolerance          ... 1.000e-08
Integral handling              ... Direct
Number of perturbations        ... 1
Number of operators            ... 1
Orbital ranges used for CP-SCF:
 Operator 0:  Orbitals   0... 30  to  31...307
Variables per vector in CP-SCF ... 8587
Number of vectors sought       ... 1
     CP-SCF ITERATION   0: 
     CP-SCF ITERATION   1:      0.001527909
     CP-SCF ITERATION   2:      0.000322279
     CP-SCF ITERATION   3:      0.000021952
     CP-SCF ITERATION   4:      0.000005113
     CP-SCF ITERATION   5:      0.000000409
     CP-SCF ITERATION   6:      0.000000045
     CP-SCF ITERATION   7:      0.000000005
done
Finalizing the relaxed density                   ... done
Transforming P to the AO basis                   ... done
Storing the relaxed density                      ... done

                *********************************************
                * UNRELAXED MP2 DENSITY POPULATION ANALYSIS *
                *********************************************

------------------------------------------------------------------------------
                           ORCA POPULATION ANALYSIS
------------------------------------------------------------------------------
Input electron density              ... dsgdb9nsd_007956.pmp2ur
BaseName (.gbw .S,...)              ... dsgdb9nsd_007956

                    ********************************
                    * MULLIKEN POPULATION ANALYSIS *
                    ********************************

-----------------------
MULLIKEN ATOMIC CHARGES
-----------------------
   0 C :   -0.367017
   1 C :   -0.013051
   2 C :   -0.234397
   3 C :    0.396771
   4 O :   -0.410647
   5 O :   -0.331160
   6 C :    0.182688
   7 C :   -0.390212
   8 H :    0.113608
   9 H :    0.125282
  10 H :    0.120406
  11 H :    0.089614
  12 H :    0.134081
  13 H :    0.122095
  14 H :    0.097771
  15 H :    0.112604
  16 H :    0.115016
  17 H :    0.136550
Sum of atomic charges:    0.0000000

--------------------------------
MULLIKEN REDUCED ORBITAL CHARGES
--------------------------------
  0 C s       :     3.243170  s :     3.243170
      pz      :     1.061012  p :     3.014406
      px      :     1.004893
      py      :     0.948502
      dz2     :     0.017371  d :     0.101216
      dxz     :     0.024808
      dyz     :     0.016289
      dx2y2   :     0.019270
      dxy     :     0.023478
      f0      :     0.001129  f :     0.008225
      f+1     :     0.001447
      f-1     :     0.000796
      f+2     :     0.000754
      f-2     :     0.001198
      f+3     :     0.001597
      f-3     :     0.001304
  1 C s       :     3.054328  s :     3.054328
      pz      :     0.908497  p :     2.787112
      px      :     0.930866
      py      :     0.947748
      dz2     :     0.031980  d :     0.158941
      dxz     :     0.035639
      dyz     :     0.027952
      dx2y2   :     0.027612
      dxy     :     0.035759
      f0      :     0.001787  f :     0.012671
      f+1     :     0.002164
      f-1     :     0.001384
      f+2     :     0.001483
      f-2     :     0.002133
      f+3     :     0.001879
      f-3     :     0.001841
  2 C s       :     3.137381  s :     3.137381
      pz      :     1.034875  p :     2.974014
      px      :     0.944812
      py      :     0.994327
      dz2     :     0.028454  d :     0.112808
      dxz     :     0.021548
      dyz     :     0.014964
      dx2y2   :     0.017187
      dxy     :     0.030656
      f0      :     0.001658  f :     0.010195
      f+1     :     0.001780
      f-1     :     0.001173
      f+2     :     0.001118
      f-2     :     0.001637
      f+3     :     0.001601
      f-3     :     0.001227
  3 C s       :     3.058110  s :     3.058110
      pz      :     0.706585  p :     2.227518
      px      :     0.752033
      py      :     0.768900
      dz2     :     0.076165  d :     0.287673
      dxz     :     0.066814
      dyz     :     0.052230
      dx2y2   :     0.048763
      dxy     :     0.043702
      f0      :     0.004490  f :     0.029928
      f+1     :     0.006621
      f-1     :     0.004524
      f+2     :     0.003411
      f-2     :     0.003719
      f+3     :     0.004152
      f-3     :     0.003010
  4 O s       :     3.816883  s :     3.816883
      pz      :     1.660722  p :     4.525598
      px      :     1.370919
      py      :     1.493957
      dz2     :     0.010447  d :     0.063217
      dxz     :     0.013244
      dyz     :     0.010364
      dx2y2   :     0.015963
      dxy     :     0.013200
      f0      :     0.000597  f :     0.004949
      f+1     :     0.000781
      f-1     :     0.000517
      f+2     :     0.000726
      f-2     :     0.000812
      f+3     :     0.000825
      f-3     :     0.000691
  5 O s       :     3.763698  s :     3.763698
      pz      :     1.387278  p :     4.491950
      px      :     1.492325
      py      :     1.612347
      dz2     :     0.019963  d :     0.070584
      dxz     :     0.012257
      dyz     :     0.013324
      dx2y2   :     0.009927
      dxy     :     0.015114
      f0      :     0.000905  f :     0.004929
      f+1     :     0.000857
      f-1     :     0.000702
      f+2     :     0.000556
      f-2     :     0.000681
      f+3     :     0.000569
      f-3     :     0.000658
  6 C s       :     3.070665  s :     3.070665
      pz      :     0.929429  p :     2.537107
      px      :     0.776923
      py      :     0.830756
      dz2     :     0.029843  d :     0.192685
      dxz     :     0.039687
      dyz     :     0.043896
      dx2y2   :     0.035976
      dxy     :     0.043283
      f0      :     0.002233  f :     0.016855
      f+1     :     0.002179
      f-1     :     0.002125
      f+2     :     0.001942
      f-2     :     0.003323
      f+3     :     0.002735
      f-3     :     0.002317
  7 C s       :     3.252415  s :     3.252415
      pz      :     1.023834  p :     3.031388
      px      :     1.025002
      py      :     0.982552
      dz2     :     0.015746  d :     0.098142
      dxz     :     0.022912
      dyz     :     0.023188
      dx2y2   :     0.010665
      dxy     :     0.025631
      f0      :     0.000839  f :     0.008267
      f+1     :     0.000868
      f-1     :     0.001277
      f+2     :     0.001085
      f-2     :     0.002369
      f+3     :     0.000835
      f-3     :     0.000994
  8 H s       :     0.861360  s :     0.861360
      pz      :     0.005561  p :     0.025032
      px      :     0.007762
      py      :     0.011708
  9 H s       :     0.849780  s :     0.849780
      pz      :     0.012936  p :     0.024938
      px      :     0.006669
      py      :     0.005333
 10 H s       :     0.854735  s :     0.854735
      pz      :     0.009210  p :     0.024858
      px      :     0.010936
      py      :     0.004712
 11 H s       :     0.884540  s :     0.884540
      pz      :     0.005815  p :     0.025847
      px      :     0.009026
      py      :     0.011005
 12 H s       :     0.840089  s :     0.840089
      pz      :     0.015748  p :     0.025830
      px      :     0.005018
      py      :     0.005065
 13 H s       :     0.852114  s :     0.852114
      pz      :     0.004791  p :     0.025791
      px      :     0.007387
      py      :     0.013613
 14 H s       :     0.877105  s :     0.877105
      pz      :     0.007964  p :     0.025125
      px      :     0.008744
      py      :     0.008417
 15 H s       :     0.862374  s :     0.862374
      pz      :     0.006862  p :     0.025022
      px      :     0.008949
      py      :     0.009211
 16 H s       :     0.860032  s :     0.860032
      pz      :     0.006598  p :     0.024953
      px      :     0.010312
      py      :     0.008042
 17 H s       :     0.838328  s :     0.838328
      pz      :     0.011034  p :     0.025122
      px      :     0.007801
      py      :     0.006287


                     *******************************
                     * LOEWDIN POPULATION ANALYSIS *
                     *******************************

----------------------
LOEWDIN ATOMIC CHARGES
----------------------
   0 C :   -0.264806
   1 C :   -0.241370
   2 C :   -0.180380
   3 C :   -0.399296
   4 O :    0.076831
   5 O :    0.227500
   6 C :   -0.251965
   7 C :   -0.264053
   8 H :    0.117382
   9 H :    0.119694
  10 H :    0.118760
  11 H :    0.149855
  12 H :    0.144609
  13 H :    0.148612
  14 H :    0.137359
  15 H :    0.117611
  16 H :    0.119583
  17 H :    0.124074

-------------------------------
LOEWDIN REDUCED ORBITAL CHARGES
-------------------------------
  0 C s       :     2.820052  s :     2.820052
      pz      :     1.049373  p :     3.109723
      px      :     1.034442
      py      :     1.025908
      dz2     :     0.045269  d :     0.304862
      dxz     :     0.074544
      dyz     :     0.045842
      dx2y2   :     0.064410
      dxy     :     0.074797
      f0      :     0.003726  f :     0.030169
      f+1     :     0.003587
      f-1     :     0.003582
      f+2     :     0.003945
      f-2     :     0.003905
      f+3     :     0.005436
      f-3     :     0.005987
  1 C s       :     2.726219  s :     2.726219
      pz      :     0.959886  p :     2.917938
      px      :     0.968817
      py      :     0.989235
      dz2     :     0.103643  d :     0.538074
      dxz     :     0.121387
      dyz     :     0.094685
      dx2y2   :     0.082291
      dxy     :     0.136068
      f0      :     0.008269  f :     0.059138
      f+1     :     0.009610
      f-1     :     0.006776
      f+2     :     0.008286
      f-2     :     0.010214
      f+3     :     0.007105
      f-3     :     0.008879
  2 C s       :     2.768058  s :     2.768058
      pz      :     0.999502  p :     2.981307
      px      :     0.984000
      py      :     0.997804
      dz2     :     0.110503  d :     0.386748
      dxz     :     0.073975
      dyz     :     0.039346
      dx2y2   :     0.058494
      dxy     :     0.104430
      f0      :     0.005489  f :     0.044267
      f+1     :     0.007765
      f-1     :     0.004940
      f+2     :     0.005465
      f-2     :     0.008629
      f+3     :     0.007123
      f-3     :     0.004857
  3 C s       :     2.751763  s :     2.751763
      pz      :     0.833562  p :     2.525748
      px      :     0.869256
      py      :     0.822930
      dz2     :     0.253167  d :     0.957911
      dxz     :     0.231642
      dyz     :     0.165094
      dx2y2   :     0.144925
      dxy     :     0.163082
      f0      :     0.024802  f :     0.163874
      f+1     :     0.038698
      f-1     :     0.028014
      f+2     :     0.020056
      f-2     :     0.017143
      f+3     :     0.018827
      f-3     :     0.016334
  4 O s       :     3.394510  s :     3.394510
      pz      :     1.563121  p :     4.423458
      px      :     1.425721
      py      :     1.434616
      dz2     :     0.015780  d :     0.096007
      dxz     :     0.023485
      dyz     :     0.013484
      dx2y2   :     0.019171
      dxy     :     0.024088
      f0      :     0.001101  f :     0.009194
      f+1     :     0.001516
      f-1     :     0.000745
      f+2     :     0.001260
      f-2     :     0.001796
      f+3     :     0.001193
      f-3     :     0.001582
  5 O s       :     3.263286  s :     3.263286
      pz      :     1.394542  p :     4.370872
      px      :     1.439393
      py      :     1.536937
      dz2     :     0.037033  d :     0.128783
      dxz     :     0.027079
      dyz     :     0.023233
      dx2y2   :     0.017755
      dxy     :     0.023683
      f0      :     0.001774  f :     0.009559
      f+1     :     0.001707
      f-1     :     0.001762
      f+2     :     0.000994
      f-2     :     0.001170
      f+3     :     0.001096
      f-3     :     0.001055
  6 C s       :     2.748123  s :     2.748123
      pz      :     0.979852  p :     2.771446
      px      :     0.857812
      py      :     0.933782
      dz2     :     0.108111  d :     0.643189
      dxz     :     0.133958
      dyz     :     0.140240
      dx2y2   :     0.101766
      dxy     :     0.159114
      f0      :     0.013040  f :     0.089207
      f+1     :     0.012211
      f-1     :     0.011190
      f+2     :     0.009250
      f-2     :     0.013990
      f+3     :     0.015300
      f-3     :     0.014226
  7 C s       :     2.825039  s :     2.825039
      pz      :     1.032651  p :     3.113887
      px      :     1.044283
      py      :     1.036953
      dz2     :     0.044166  d :     0.295238
      dxz     :     0.068615
      dyz     :     0.072274
      dx2y2   :     0.026169
      dxy     :     0.084014
      f0      :     0.004460  f :     0.029889
      f+1     :     0.002914
      f-1     :     0.005587
      f+2     :     0.003478
      f-2     :     0.005709
      f+3     :     0.003369
      f-3     :     0.004372
  8 H s       :     0.817300  s :     0.817300
      pz      :     0.015387  p :     0.065318
      px      :     0.021573
      py      :     0.028358
  9 H s       :     0.815152  s :     0.815152
      pz      :     0.033547  p :     0.065154
      px      :     0.017465
      py      :     0.014142
 10 H s       :     0.816287  s :     0.816287
      pz      :     0.024456  p :     0.064953
      px      :     0.027264
      py      :     0.013233
 11 H s       :     0.788316  s :     0.788316
      pz      :     0.015290  p :     0.061829
      px      :     0.020946
      py      :     0.025592
 12 H s       :     0.790324  s :     0.790324
      pz      :     0.036888  p :     0.065066
      px      :     0.013702
      py      :     0.014476
 13 H s       :     0.786888  s :     0.786888
      pz      :     0.013511  p :     0.064501
      px      :     0.018950
      py      :     0.032040
 14 H s       :     0.801524  s :     0.801524
      pz      :     0.019765  p :     0.061117
      px      :     0.021008
      py      :     0.020344
 15 H s       :     0.817096  s :     0.817096
      pz      :     0.019384  p :     0.065293
      px      :     0.022919
      py      :     0.022990
 16 H s       :     0.815131  s :     0.815131
      pz      :     0.017214  p :     0.065286
      px      :     0.027789
      py      :     0.020283
 17 H s       :     0.810149  s :     0.810149
      pz      :     0.027576  p :     0.065777
      px      :     0.020389
      py      :     0.017812


                      *****************************
                      * MAYER POPULATION ANALYSIS *
                      *****************************

  NA   - Mulliken gross atomic population
  ZA   - Total nuclear charge
  QA   - Mulliken gross atomic charge
  VA   - Mayer's total valence
  BVA  - Mayer's bonded valence
  FA   - Mayer's free valence

  ATOM       NA         ZA         QA         VA         BVA        FA
  0 C      6.3670     6.0000    -0.3670     4.0543     3.7509     0.3034
  1 C      6.0131     6.0000    -0.0131     3.9827     3.6489     0.3338
  2 C      6.2344     6.0000    -0.2344     4.0005     3.6792     0.3213
  3 C      5.6032     6.0000     0.3968     4.2891     3.9408     0.3483
  4 O      8.4106     8.0000    -0.4106     2.3372     1.8900     0.4472
  5 O      8.3312     8.0000    -0.3312     2.2573     1.8203     0.4370
  6 C      5.8173     6.0000     0.1827     3.8925     3.5697     0.3228
  7 C      6.3902     6.0000    -0.3902     4.0792     3.7760     0.3032
  8 H      0.8864     1.0000     0.1136     0.9791     0.9290     0.0501
  9 H      0.8747     1.0000     0.1253     0.9770     0.9281     0.0489
 10 H      0.8796     1.0000     0.1204     0.9806     0.9312     0.0494
 11 H      0.9104     1.0000     0.0896     0.9783     0.9273     0.0510
 12 H      0.8659     1.0000     0.1341     0.9935     0.9445     0.0490
 13 H      0.8779     1.0000     0.1221     0.9886     0.9377     0.0509
 14 H      0.9022     1.0000     0.0978     0.9691     0.9195     0.0496
 15 H      0.8874     1.0000     0.1126     0.9806     0.9307     0.0499
 16 H      0.8850     1.0000     0.1150     0.9792     0.9290     0.0501
 17 H      0.8634     1.0000     0.1366     0.9844     0.9363     0.0481

  Mayer bond orders larger than 0.1
B(  0-C ,  1-C ) :   0.8975 B(  0-C ,  8-H ) :   0.9401 B(  0-C ,  9-H ) :   0.9474 
B(  0-C , 10-H ) :   0.9540 B(  1-C ,  2-C ) :   0.9271 B(  1-C ,  6-C ) :   0.9068 
B(  1-C , 11-H ) :   0.9380 B(  2-C ,  3-C ) :   0.9306 B(  2-C , 12-H ) :   0.9282 
B(  2-C , 13-H ) :   0.9199 B(  3-C ,  4-O ) :   1.9160 B(  3-C ,  5-O ) :   1.0646 
B(  5-O ,  6-C ) :   0.8015 B(  6-C ,  7-C ) :   0.9135 B(  6-C , 14-H ) :   0.9349 
B(  7-C , 15-H ) :   0.9402 B(  7-C , 16-H ) :   0.9443 B(  7-C , 17-H ) :   0.9464 



                *******************************************
                * RELAXED MP2 DENSITY POPULATION ANALYSIS *
                *******************************************

------------------------------------------------------------------------------
                           ORCA POPULATION ANALYSIS
------------------------------------------------------------------------------
Input electron density              ... dsgdb9nsd_007956.pmp2re
BaseName (.gbw .S,...)              ... dsgdb9nsd_007956

                    ********************************
                    * MULLIKEN POPULATION ANALYSIS *
                    ********************************

-----------------------
MULLIKEN ATOMIC CHARGES
-----------------------
   0 C :   -0.416515
   1 C :   -0.076138
   2 C :   -0.279860
   3 C :    0.255114
   4 O :   -0.285148
   5 O :   -0.224343
   6 C :    0.107471
   7 C :   -0.439205
   8 H :    0.134460
   9 H :    0.145492
  10 H :    0.140405
  11 H :    0.110346
  12 H :    0.148913
  13 H :    0.137340
  14 H :    0.114531
  15 H :    0.135804
  16 H :    0.136098
  17 H :    0.155235
Sum of atomic charges:    0.0000000

--------------------------------
MULLIKEN REDUCED ORBITAL CHARGES
--------------------------------
  0 C s       :     3.256951  s :     3.256951
      pz      :     1.080690  p :     3.062865
      px      :     1.021956
      py      :     0.960220
      dz2     :     0.013979  d :     0.088854
      dxz     :     0.021307
      dyz     :     0.015966
      dx2y2   :     0.018646
      dxy     :     0.018955
      f0      :     0.001100  f :     0.007845
      f+1     :     0.001360
      f-1     :     0.000741
      f+2     :     0.000738
      f-2     :     0.001173
      f+3     :     0.001433
      f-3     :     0.001302
  1 C s       :     3.113063  s :     3.113063
      pz      :     0.914301  p :     2.802571
      px      :     0.935291
      py      :     0.952979
      dz2     :     0.029820  d :     0.148448
      dxz     :     0.031114
      dyz     :     0.028233
      dx2y2   :     0.026424
      dxy     :     0.032857
      f0      :     0.001761  f :     0.012057
      f+1     :     0.001983
      f-1     :     0.001274
      f+2     :     0.001370
      f-2     :     0.002112
      f+3     :     0.001687
      f-3     :     0.001870
  2 C s       :     3.159090  s :     3.159090
      pz      :     1.044107  p :     3.008764
      px      :     0.949351
      py      :     1.015306
      dz2     :     0.026476  d :     0.102285
      dxz     :     0.017854
      dyz     :     0.014196
      dx2y2   :     0.016681
      dxy     :     0.027078
      f0      :     0.001528  f :     0.009722
      f+1     :     0.001751
      f-1     :     0.001171
      f+2     :     0.001049
      f-2     :     0.001509
      f+3     :     0.001475
      f-3     :     0.001238
  3 C s       :     3.060309  s :     3.060309
      pz      :     0.748586  p :     2.377171
      px      :     0.796986
      py      :     0.831600
      dz2     :     0.074170  d :     0.279388
      dxz     :     0.065944
      dyz     :     0.051280
      dx2y2   :     0.044676
      dxy     :     0.043317
      f0      :     0.004171  f :     0.028018
      f+1     :     0.006195
      f-1     :     0.004332
      f+2     :     0.003190
      f-2     :     0.003418
      f+3     :     0.003713
      f-3     :     0.003000
  4 O s       :     3.790998  s :     3.790998
      pz      :     1.616190  p :     4.429112
      px      :     1.357214
      py      :     1.455707
      dz2     :     0.010460  d :     0.060224
      dxz     :     0.012752
      dyz     :     0.009721
      dx2y2   :     0.014661
      dxy     :     0.012629
      f0      :     0.000568  f :     0.004815
      f+1     :     0.000793
      f-1     :     0.000525
      f+2     :     0.000715
      f-2     :     0.000758
      f+3     :     0.000803
      f-3     :     0.000652
  5 O s       :     3.752844  s :     3.752844
      pz      :     1.377566  p :     4.397791
      px      :     1.451150
      py      :     1.569075
      dz2     :     0.018222  d :     0.068838
      dxz     :     0.012611
      dyz     :     0.013411
      dx2y2   :     0.010335
      dxy     :     0.014258
      f0      :     0.000881  f :     0.004871
      f+1     :     0.000841
      f-1     :     0.000691
      f+2     :     0.000563
      f-2     :     0.000680
      f+3     :     0.000572
      f-3     :     0.000644
  6 C s       :     3.113621  s :     3.113621
      pz      :     0.929386  p :     2.579352
      px      :     0.795765
      py      :     0.854201
      dz2     :     0.030780  d :     0.183573
      dxz     :     0.037158
      dyz     :     0.039782
      dx2y2   :     0.035824
      dxy     :     0.040030
      f0      :     0.002140  f :     0.015983
      f+1     :     0.002047
      f-1     :     0.002043
      f+2     :     0.001902
      f-2     :     0.003077
      f+3     :     0.002554
      f-3     :     0.002220
  7 C s       :     3.264936  s :     3.264936
      pz      :     1.038190  p :     3.080892
      px      :     1.046711
      py      :     0.995991
      dz2     :     0.015451  d :     0.085511
      dxz     :     0.019467
      dyz     :     0.018490
      dx2y2   :     0.010289
      dxy     :     0.021815
      f0      :     0.000805  f :     0.007866
      f+1     :     0.000840
      f-1     :     0.001233
      f+2     :     0.001040
      f-2     :     0.002182
      f+3     :     0.000799
      f-3     :     0.000967
  8 H s       :     0.841549  s :     0.841549
      pz      :     0.005692  p :     0.023992
      px      :     0.007496
      py      :     0.010804
  9 H s       :     0.830564  s :     0.830564
      pz      :     0.011813  p :     0.023944
      px      :     0.006628
      py      :     0.005503
 10 H s       :     0.835765  s :     0.835765
      pz      :     0.008720  p :     0.023830
      px      :     0.010155
      py      :     0.004956
 11 H s       :     0.864980  s :     0.864980
      pz      :     0.005905  p :     0.024674
      px      :     0.008544
      py      :     0.010226
 12 H s       :     0.826414  s :     0.826414
      pz      :     0.014197  p :     0.024673
      px      :     0.005210
      py      :     0.005266
 13 H s       :     0.837981  s :     0.837981
      pz      :     0.005024  p :     0.024679
      px      :     0.007252
      py      :     0.012402
 14 H s       :     0.861620  s :     0.861620
      pz      :     0.007649  p :     0.023848
      px      :     0.008253
      py      :     0.007946
 15 H s       :     0.840185  s :     0.840185
      pz      :     0.006774  p :     0.024011
      px      :     0.008503
      py      :     0.008734
 16 H s       :     0.839935  s :     0.839935
      pz      :     0.006548  p :     0.023967
      px      :     0.009630
      py      :     0.007789
 17 H s       :     0.820690  s :     0.820690
      pz      :     0.010257  p :     0.024074
      px      :     0.007577
      py      :     0.006241


                     *******************************
                     * LOEWDIN POPULATION ANALYSIS *
                     *******************************

----------------------
LOEWDIN ATOMIC CHARGES
----------------------
   0 C :   -0.290028
   1 C :   -0.257827
   2 C :   -0.206876
   3 C :   -0.465167
   4 O :    0.135416
   5 O :    0.271495
   6 C :   -0.278422
   7 C :   -0.290185
   8 H :    0.125897
   9 H :    0.128626
  10 H :    0.127246
  11 H :    0.158976
  12 H :    0.151712
  13 H :    0.155947
  14 H :    0.144722
  15 H :    0.126955
  16 H :    0.129047
  17 H :    0.132466

-------------------------------
LOEWDIN REDUCED ORBITAL CHARGES
-------------------------------
  0 C s       :     2.825422  s :     2.825422
      pz      :     1.063160  p :     3.142694
      px      :     1.045681
      py      :     1.033853
      dz2     :     0.041376  d :     0.292115
      dxz     :     0.070276
      dyz     :     0.046279
      dx2y2   :     0.064018
      dxy     :     0.070165
      f0      :     0.003685  f :     0.029797
      f+1     :     0.003470
      f-1     :     0.003540
      f+2     :     0.003895
      f-2     :     0.003865
      f+3     :     0.005307
      f-3     :     0.006035
  1 C s       :     2.732508  s :     2.732508
      pz      :     0.965109  p :     2.933495
      px      :     0.973635
      py      :     0.994750
      dz2     :     0.102758  d :     0.532826
      dxz     :     0.117724
      dyz     :     0.096203
      dx2y2   :     0.082933
      dxy     :     0.133208
      f0      :     0.008315  f :     0.058998
      f+1     :     0.009533
      f-1     :     0.006710
      f+2     :     0.008296
      f-2     :     0.010256
      f+3     :     0.006953
      f-3     :     0.008934
  2 C s       :     2.774714  s :     2.774714
      pz      :     1.005547  p :     3.007150
      px      :     0.990648
      py      :     1.010955
      dz2     :     0.107964  d :     0.380602
      dxz     :     0.072057
      dyz     :     0.039045
      dx2y2   :     0.060502
      dxy     :     0.101034
      f0      :     0.005283  f :     0.044410
      f+1     :     0.007796
      f-1     :     0.004926
      f+2     :     0.005677
      f-2     :     0.008551
      f+3     :     0.007117
      f-3     :     0.005059
  3 C s       :     2.757028  s :     2.757028
      pz      :     0.846488  p :     2.599046
      px      :     0.892417
      py      :     0.860141
      dz2     :     0.255363  d :     0.953201
      dxz     :     0.233463
      dyz     :     0.163230
      dx2y2   :     0.138377
      dxy     :     0.162768
      f0      :     0.023878  f :     0.155891
      f+1     :     0.035939
      f-1     :     0.027206
      f+2     :     0.019140
      f-2     :     0.016033
      f+3     :     0.017532
      f-3     :     0.016162
  4 O s       :     3.396408  s :     3.396408
      pz      :     1.535966  p :     4.362267
      px      :     1.416133
      py      :     1.410167
      dz2     :     0.015946  d :     0.096531
      dxz     :     0.023213
      dyz     :     0.013569
      dx2y2   :     0.019792
      dxy     :     0.024010
      f0      :     0.001084  f :     0.009379
      f+1     :     0.001535
      f-1     :     0.000757
      f+2     :     0.001313
      f-2     :     0.001808
      f+3     :     0.001315
      f-3     :     0.001568
  5 O s       :     3.271119  s :     3.271119
      pz      :     1.392599  p :     4.315756
      px      :     1.416119
      py      :     1.507039
      dz2     :     0.037064  d :     0.131782
      dxz     :     0.028380
      dyz     :     0.024101
      dx2y2   :     0.018409
      dxy     :     0.023828
      f0      :     0.001859  f :     0.009847
      f+1     :     0.001781
      f-1     :     0.001786
      f+2     :     0.001001
      f-2     :     0.001214
      f+3     :     0.001120
      f-3     :     0.001086
  6 C s       :     2.756310  s :     2.756310
      pz      :     0.982483  p :     2.796269
      px      :     0.870260
      py      :     0.943526
      dz2     :     0.109116  d :     0.638246
      dxz     :     0.131690
      dyz     :     0.138734
      dx2y2   :     0.102532
      dxy     :     0.156174
      f0      :     0.013001  f :     0.087598
      f+1     :     0.012042
      f-1     :     0.011185
      f+2     :     0.009148
      f-2     :     0.013495
      f+3     :     0.014650
      f-3     :     0.014077
  7 C s       :     2.830970  s :     2.830970
      pz      :     1.043178  p :     3.148673
      px      :     1.057879
      py      :     1.047616
      dz2     :     0.044049  d :     0.281047
      dxz     :     0.064341
      dyz     :     0.067559
      dx2y2   :     0.026327
      dxy     :     0.078772
      f0      :     0.004426  f :     0.029494
      f+1     :     0.002847
      f-1     :     0.005579
      f+2     :     0.003505
      f-2     :     0.005481
      f+3     :     0.003299
      f-3     :     0.004358
  8 H s       :     0.807876  s :     0.807876
      pz      :     0.015936  p :     0.066227
      px      :     0.021897
      py      :     0.028394
  9 H s       :     0.805255  s :     0.805255
      pz      :     0.033473  p :     0.066119
      px      :     0.017912
      py      :     0.014734
 10 H s       :     0.806833  s :     0.806833
      pz      :     0.024697  p :     0.065921
      px      :     0.027377
      py      :     0.013847
 11 H s       :     0.777993  s :     0.777993
      pz      :     0.015955  p :     0.063031
      px      :     0.021273
      py      :     0.025803
 12 H s       :     0.782335  s :     0.782335
      pz      :     0.036390  p :     0.065953
      px      :     0.014408
      py      :     0.015155
 13 H s       :     0.778626  s :     0.778626
      pz      :     0.014087  p :     0.065426
      px      :     0.019446
      py      :     0.031894
 14 H s       :     0.793152  s :     0.793152
      pz      :     0.020196  p :     0.062126
      px      :     0.021397
      py      :     0.020533
 15 H s       :     0.806708  s :     0.806708
      pz      :     0.019858  p :     0.066337
      px      :     0.023212
      py      :     0.023267
 16 H s       :     0.804573  s :     0.804573
      pz      :     0.017709  p :     0.066381
      px      :     0.027932
      py      :     0.020740
 17 H s       :     0.800826  s :     0.800826
      pz      :     0.027688  p :     0.066708
      px      :     0.020776
      py      :     0.018244


                      *****************************
                      * MAYER POPULATION ANALYSIS *
                      *****************************

  NA   - Mulliken gross atomic population
  ZA   - Total nuclear charge
  QA   - Mulliken gross atomic charge
  VA   - Mayer's total valence
  BVA  - Mayer's bonded valence
  FA   - Mayer's free valence

  ATOM       NA         ZA         QA         VA         BVA        FA
  0 C      6.4165     6.0000    -0.4165     4.0095     3.7088     0.3007
  1 C      6.0761     6.0000    -0.0761     3.9853     3.6567     0.3286
  2 C      6.2799     6.0000    -0.2799     3.9397     3.6254     0.3143
  3 C      5.7449     6.0000     0.2551     4.4482     4.1205     0.3276
  4 O      8.2851     8.0000    -0.2851     2.4914     2.0612     0.4302
  5 O      8.2243     8.0000    -0.2243     2.3755     1.9534     0.4221
  6 C      5.8925     6.0000     0.1075     3.9387     3.6221     0.3167
  7 C      6.4392     6.0000    -0.4392     4.0326     3.7325     0.3001
  8 H      0.8655     1.0000     0.1345     0.9748     0.9258     0.0491
  9 H      0.8545     1.0000     0.1455     0.9704     0.9223     0.0480
 10 H      0.8596     1.0000     0.1404     0.9737     0.9253     0.0484
 11 H      0.8897     1.0000     0.1103     0.9686     0.9186     0.0500
 12 H      0.8511     1.0000     0.1489     0.9851     0.9370     0.0481
 13 H      0.8627     1.0000     0.1373     0.9814     0.9315     0.0499
 14 H      0.8855     1.0000     0.1145     0.9590     0.9103     0.0486
 15 H      0.8642     1.0000     0.1358     0.9763     0.9275     0.0488
 16 H      0.8639     1.0000     0.1361     0.9738     0.9249     0.0489
 17 H      0.8448     1.0000     0.1552     0.9789     0.9318     0.0471

  Mayer bond orders larger than 0.1
B(  0-C ,  1-C ) :   0.9030 B(  0-C ,  8-H ) :   0.9297 B(  0-C ,  9-H ) :   0.9365 
B(  0-C , 10-H ) :   0.9418 B(  1-C ,  2-C ) :   0.9280 B(  1-C ,  6-C ) :   0.9049 
B(  1-C , 11-H ) :   0.9252 B(  2-C ,  3-C ) :   0.9253 B(  2-C , 12-H ) :   0.9142 
B(  2-C , 13-H ) :   0.9035 B(  3-C ,  4-O ) :   2.0443 B(  3-C ,  5-O ) :   1.1137 
B(  5-O ,  6-C ) :   0.8499 B(  6-C ,  7-C ) :   0.9199 B(  6-C , 14-H ) :   0.9233 
B(  7-C , 15-H ) :   0.9315 B(  7-C , 16-H ) :   0.9301 B(  7-C , 17-H ) :   0.9333 



-------
TIMINGS
-------

Total time                :  664.058 sec
Integral trafo            :    6.760 sec (  1.0%)
FC preparation            :    2.312 sec (  0.3%)
I/O of integrals          :    0.041 sec (  0.0%)
K(i,j) Operators          :    5.980 sec (  0.9%)
T(i,j) pair energies      :    0.575 sec (  0.1%)
V-calculation             :    0.024 sec (  0.0%)
V**(-1/2)                 :    0.175 sec (  0.0%)
Gamma(ia|P)               :    5.886 sec (  0.9%)
Gamma-Trafo               :    1.026 sec (  0.2%)
D(virtual)                :    2.245 sec (  0.3%)
D(internal)               :    1.944 sec (  0.3%)
W(virtual)                :    0.000 sec (  0.0%)
W(internal)               :    0.000 sec (  0.0%)
L(virtual)                :    8.348 sec (  1.3%)
L(internal)               :    0.149 sec (  0.0%)
G(D)                      :   77.850 sec ( 11.7%)
G(Z)                      :    0.000 sec (  0.0%)
Z-Vector Solution         :  550.201 sec ( 82.9%)
3-Index Derivative        :    0.000 sec (  0.0%)
2-Index Derivative        :    0.000 sec (  0.0%)
Separable Gradient (RIJ)  :    0.000 sec (  0.0%)
Separable Gradient (X)    :    0.000 sec (  0.0%)


---------------------------------------
MP2 TOTAL ENERGY:     -384.365873538 Eh
---------------------------------------

-------------------------   --------------------
FINAL SINGLE POINT ENERGY      -384.365873538290
-------------------------   --------------------


                            ***************************************
                            *     ORCA property calculations      *
                            ***************************************

                                    ---------------------
                                    Active property flags
                                    ---------------------
   (+) Dipole Moment


------------------------------------------------------------------------------
                       ORCA ELECTRIC PROPERTIES CALCULATION
------------------------------------------------------------------------------

Dipole Moment Calculation                       ... on
Quadrupole Moment Calculation                   ... off
Polarizability Calculation                      ... off
GBWName                                         ... dsgdb9nsd_007956.gbw
Electron density file                           ... dsgdb9nsd_007956.scfp.tmp

-------------
DIPOLE MOMENT
-------------
                                X             Y             Z
Electronic contribution:      6.50741      -7.56459      -2.66799
Nuclear contribution   :     -8.14202       8.84000       3.04921
                        -----------------------------------------
Total Dipole Moment    :     -1.63461       1.27541       0.38122
                        -----------------------------------------
Magnitude (a.u.)       :      2.10807
Magnitude (Debye)      :      5.35828


                         *** MP2 UNRELAXED DENSITY ***

------------------------------------------------------------------------------
                       ORCA ELECTRIC PROPERTIES CALCULATION
------------------------------------------------------------------------------

Dipole Moment Calculation                       ... on
Quadrupole Moment Calculation                   ... off
Polarizability Calculation                      ... off
GBWName                                         ... dsgdb9nsd_007956.gbw
Electron density file                           ... dsgdb9nsd_007956.pmp2ur

-------------
DIPOLE MOMENT
-------------
                                X             Y             Z
Electronic contribution:      6.55256      -7.60321      -2.67061
Nuclear contribution   :     -8.14202       8.84000       3.04921
                        -----------------------------------------
Total Dipole Moment    :     -1.58946       1.23679       0.37860
                        -----------------------------------------
Magnitude (a.u.)       :      2.04923
Magnitude (Debye)      :      5.20873


                           *** MP2 RELAXED DENSITY ***

------------------------------------------------------------------------------
                       ORCA ELECTRIC PROPERTIES CALCULATION
------------------------------------------------------------------------------

Dipole Moment Calculation                       ... on
Quadrupole Moment Calculation                   ... off
Polarizability Calculation                      ... off
GBWName                                         ... dsgdb9nsd_007956.gbw
Electron density file                           ... dsgdb9nsd_007956.pmp2re

-------------
DIPOLE MOMENT
-------------
                                X             Y             Z
Electronic contribution:      6.70767      -7.71701      -2.69557
Nuclear contribution   :     -8.14202       8.84000       3.04921
                        -----------------------------------------
Total Dipole Moment    :     -1.43435       1.12299       0.35364
                        -----------------------------------------
Magnitude (a.u.)       :      1.85567
Magnitude (Debye)      :      4.71674


Timings for individual modules:

Sum of individual times         ...      785.721 sec (=  13.095 min)
GTO integral calculation        ...        0.457 sec (=   0.008 min)   0.1 %
SCF iterations                  ...      121.058 sec (=   2.018 min)  15.4 %
MP2 module                      ...      664.206 sec (=  11.070 min)  84.5 %
                             ****ORCA TERMINATED NORMALLY****
TOTAL RUN TIME: 0 days 0 hours 13 minutes 6 seconds 181 msec
